44   
Iteration 0 Energy -2321.25208624
S        0.8157390000    1.2760510000    1.4757420000
S        2.6121550000    1.9572930000    0.7859980000
S        3.9965970000    0.5413550000    1.2750230000
O        5.1205700000    1.1361630000   -2.9423610000
O        6.4968030000   -2.8591720000   -2.4907430000
O        5.2675970000   -1.6968520000   -3.9664850000
O        0.4612320000    1.5706110000   -3.5308330000
O        1.0948660000   -2.8352890000   -0.7641020000
N        4.9033880000   -1.4045660000   -1.7905070000
C        3.9936120000    0.7005770000   -2.7005860000
C        3.7592640000   -0.6027690000   -2.0345630000
C        2.5270730000   -1.0121970000   -1.7334840000
C        1.3866810000   -0.0955330000   -1.9570120000
C        1.4956450000    0.6539470000   -3.2913390000
C        2.7808260000    1.4898630000   -3.1225520000
C        5.6258360000   -2.0642000000   -2.7416420000
C        5.9086950000   -2.4065270000   -5.0293840000
C        1.6561060000   -0.3218560000   -4.4112610000
C        1.8598540000   -1.1918900000   -5.2050140000
C        2.1076360000   -2.4019780000   -5.9212160000
C        2.3890020000   -3.5392780000   -5.2643170000
C        2.4725910000   -3.5006090000   -3.8478780000
C        2.4434840000   -3.1833030000   -2.6960240000
C        2.3173550000   -2.5020600000   -1.3959110000
C        0.4642170000    0.2354210000   -1.0400900000
C        0.4694420000   -0.1523980000    0.3945960000
C        4.1682530000    0.7267350000    3.0495630000
H       -0.2589770000    1.1634580000   -3.5992600000
H        0.4933240000   -2.8876050000   -1.3343270000
H        5.1668430000   -1.4830390000   -0.9648210000
H        2.9771100000    1.9345470000   -3.9733280000
H        2.6143940000    2.1881650000   -2.4565290000
H        5.5870260000   -2.0721610000   -5.8824410000
H        5.7056930000   -3.3527600000   -4.9563960000
H        6.8684750000   -2.2768750000   -4.9746430000
H        2.0725580000   -2.4019780000   -6.8609470000
H        2.5270730000   -4.3422110000   -5.7319020000
H        3.0614460000   -2.7977580000   -0.8142810000
H       -0.2552450000    0.7642660000   -1.3366070000
H        1.1493480000   -0.8416020000    0.5428540000
H       -0.4022720000   -0.5333940000    0.6318090000
H        4.8160670000    0.0852980000    3.3802940000
H        3.3107200000    0.5686500000    3.4760920000
H        4.4697700000    1.6252020000    3.2548440000
44   
Iteration 1 Energy -2321.46800211
S        0.8321312418    1.2370999609    1.4664987924
S        2.6278916659    1.9102880757    0.7306089715
S        4.0272763599    0.4702705253    1.1578714661
O        5.1172847196    1.1503372877   -2.8809008887
O        6.4868498352   -2.8344771282   -2.4205120997
O        5.2292274289   -1.6534972499   -3.9004199235
O        0.4589204365    1.5694177369   -3.5794993624
O        1.0490215909   -2.7790134103   -0.7416809030
N        4.8921674977   -1.3714390094   -1.7159929305
C        3.9875566848    0.7309024218   -2.6705858094
C        3.7549953316   -0.5702847417   -1.9941430146
C        2.5084097075   -0.9883486140   -1.7104949394
C        1.3695294226   -0.0792422999   -1.9713087448
C        1.4997419622    0.6620952267   -3.3105881224
C        2.7765473017    1.5137133242   -3.1286442246
C        5.6126688117   -2.0328161564   -2.6765977813
C        5.8543700076   -2.3581812175   -4.9801614134
C        1.6806647581   -0.3216220433   -4.4114261286
C        1.8978136844   -1.2103811407   -5.2021648101
C        2.1553173911   -2.4220851522   -5.9088763827
C        2.4285893368   -3.5593337926   -5.2257690887
C        2.4836708060   -3.5055511591   -3.8062546397
C        2.4362111679   -3.1718998461   -2.6451455207
C        2.2871121043   -2.4741851654   -1.3547196117
C        0.4287892875    0.2531613513   -1.0748818958
C        0.4637187667   -0.1723194383    0.3558781266
C        4.2602273889    0.6469711288    2.9408008801
H       -0.3320464956    1.1114995870   -3.6674399473
H        0.3996896338   -2.8373642340   -1.3877630373
H        5.1782658181   -1.4584083002   -0.8053132503
H        3.0027875538    1.9786809880   -4.0317266682
H        2.5754182983    2.2593114739   -2.4302262350
H        5.4788225581   -1.9783575974   -5.8682097389
H        5.6384451272   -3.3700489662   -4.9085845626
H        6.8809186383   -2.2182801554   -4.9416302110
H        2.1310277937   -2.4304520303   -6.9318250890
H        2.5880965336   -4.4392749223   -5.7215964709
H        3.0504461006   -2.7829194936   -0.7137721611
H       -0.3531641907    0.8353117500   -1.3862968054
H        1.1897189181   -0.9028126304    0.4926624526
H       -0.4553770979   -0.5785041536    0.6293424409
H        4.9601413516   -0.0507225522    3.2546955825
H        3.3587738779    0.4779565786    3.4249980183
H        4.5992028571    1.6025471893    3.1558246924
44   
Iteration 2 Energy -2321.49656518
S        0.8000280862    1.3290714591    1.4785605257
S        2.6714982471    1.9160049201    0.8387843796
S        3.9981196040    0.4621838151    1.4546642642
O        5.1407443477    1.1451197261   -2.9921620663
O        6.5554701748   -2.8489213625   -2.5667217394
O        5.2652169237   -1.7037012242   -4.0353765886
O        0.4613415741    1.5564182037   -3.5439693285
O        1.1406948606   -2.8078429781   -0.7389937433
N        4.9546958361   -1.3848987357   -1.8375886165
C        4.0230758326    0.7215386130   -2.7496996630
C        3.8081465422   -0.5852253601   -2.0721092603
C        2.5686497865   -1.0112540785   -1.7479586362
C        1.4226145424   -0.0991976555   -1.9690439902
C        1.5144582261    0.6487537709   -3.3104300599
C        2.7944551605    1.5047178266   -3.1682693493
C        5.6674207778   -2.0538791863   -2.8036654432
C        5.8871982594   -2.4278728632   -5.1042198581
C        1.6586950733   -0.3282083644   -4.4163595343
C        1.8468861048   -1.2177034129   -5.2184835595
C        2.0723686448   -2.4235015987   -5.9398927526
C        2.3666693648   -3.5691090790   -5.2721080176
C        2.4688580074   -3.5218017373   -3.8562332002
C        2.4615092206   -3.1933332539   -2.6890222207
C        2.3579082627   -2.5016424089   -1.3914369787
C        0.5021061195    0.2405656559   -1.0509116986
C        0.4514216555   -0.1204451173    0.4020273742
C        4.1113306332    0.7542420708    3.2425545239
H       -0.3470218078    1.0784608212   -3.6115124727
H        0.4592991148   -2.8609332163   -1.3857236980
H        5.2744571727   -1.4724262300   -0.9141263885
H        2.9985434971    1.9843145713   -4.0948826924
H        2.6053703844    2.2619614985   -2.4449073474
H        5.4812123151   -2.0550669389   -6.0086442850
H        5.6773107842   -3.4633336951   -5.0085858190
H        6.9362277604   -2.2743667815   -5.0821515606
H        2.0098915537   -2.4247042486   -6.9875209424
H        2.5103138652   -4.4693168919   -5.7908126993
H        3.1528985957   -2.8207842436   -0.7599804923
H       -0.2821986676    0.8489712384   -1.3912633326
H        1.1560210349   -0.8793480657    0.6249082169
H       -0.5144803492   -0.4873563467    0.6561092807
H        4.7808760405    0.0408975302    3.6526536721
H        3.1530181979    0.6375807953    3.6822248825
H        4.4745506196    1.7331145562    3.4263098985
44   
Iteration 3 Energy -2321.50818405
S        0.8430865140    1.2284300357    1.4535393812
S        2.6643115094    1.8526566988    0.6867800473
S        4.0407545326    0.3613716829    1.1013855125
O        5.1034900059    1.1909512725   -2.8688004163
O        6.5121740790   -2.7762654465   -2.3726960277
O        5.2272613644   -1.6343477411   -3.8787545320
O        0.4421290351    1.5659289886   -3.6172700970
O        1.0276867487   -2.7326264440   -0.7157393620
N        4.8863540856   -1.3219212788   -1.6935402647
C        3.9797438873    0.7681611558   -2.6707906363
C        3.7465679294   -0.5332593415   -1.9836416820
C        2.4961997633   -0.9671704407   -1.7022216938
C        1.3564001968   -0.0668069925   -1.9838332274
C        1.4945200307    0.6682404806   -3.3300425716
C        2.7610192380    1.5379614068   -3.1512018144
C        5.6249400423   -1.9890769673   -2.6414465456
C        5.8645161148   -2.3476987957   -4.9450485045
C        1.6818670951   -0.3217713841   -4.4119373125
C        1.8998609155   -1.2256698711   -5.1929442976
C        2.1567254987   -2.4384253161   -5.8861161722
C        2.4304400390   -3.5747388534   -5.1884973855
C        2.4763270605   -3.5084182299   -3.7716811173
C        2.4264228678   -3.1626121159   -2.6083766886
C        2.2713688772   -2.4505031069   -1.3281741781
C        0.4062695720    0.2708068044   -1.1010580379
C        0.4463362457   -0.1722075926    0.3261370247
C        4.3134096664    0.5594533918    2.8919211580
H       -0.3723858193    1.0635902509   -3.7125446302
H        0.3622529623   -2.7919401045   -1.4062132602
H        5.1883614850   -1.4056232878   -0.7433343857
H        3.0045707077    2.0163663007   -4.0901604922
H        2.5300864603    2.3149361855   -2.4324446671
H        5.4471385160   -1.9592515082   -5.8599092329
H        5.6602006308   -3.4051127307   -4.8583958182
H        6.9313905851   -2.1828316181   -4.9166357564
H        2.1315089063   -2.4559061134   -6.9574098166
H        2.6008260525   -4.5007462991   -5.6990527234
H        3.0470770577   -2.7654376822   -0.6439063549
H       -0.4042635684    0.8973333663   -1.4171674613
H        1.1890033126   -0.9393351024    0.4719239182
H       -0.5106085068   -0.5755218062    0.6322765776
H        5.0266541854   -0.1909489822    3.2015870033
H        3.3814140140    0.4139482758    3.4183518331
H        4.7044620509    1.5437808336    3.1011136740
44   
Iteration 4 Energy -2321.51223856
S        0.8093159590    1.3341585636    1.4430357110
S        2.7209332124    1.8530602901    0.8082612862
S        3.9999985683    0.3587965799    1.4818459829
O        5.1680292793    1.1470028178   -2.9639891843
O        6.5528267177   -2.8228121247   -2.5829329821
O        5.1889199270   -1.6581256627   -4.0103556581
O        0.4830960087    1.5353575019   -3.5912726900
O        1.1418468764   -2.7748705697   -0.7172141307
N        4.9672237611   -1.3731266301   -1.8100643373
C        4.0460614533    0.7328993504   -2.7425410149
C        3.8264844787   -0.5733639030   -2.0564667514
C        2.5834465680   -1.0051379514   -1.7392487781
C        1.4376016397   -0.0997930881   -1.9836960973
C        1.5465552460    0.6377122071   -3.3336249367
C        2.8160077900    1.5083563863   -3.1901415228
C        5.6571516026   -2.0301458183   -2.7994346457
C        5.7647008323   -2.3569065175   -5.1189297964
C        1.6998616743   -0.3483344978   -4.4203676497
C        1.8893196263   -1.2518391063   -5.2091389086
C        2.1148751778   -2.4601648189   -5.9164059644
C        2.4048851552   -3.6007283688   -5.2316754835
C        2.4926424093   -3.5390928208   -3.8180047826
C        2.4799075493   -3.1983351350   -2.6523154165
C        2.3670226204   -2.4918502830   -1.3664727133
C        0.5031040124    0.2523314710   -1.0886340372
C        0.4433397478   -0.1164757221    0.3588983862
C        4.1174598169    0.7189095629    3.2691296623
H       -0.3365320245    1.0171064571   -3.6700777705
H        0.4528814167   -2.8259811506   -1.4007024250
H        5.3146935921   -1.4745159828   -0.8658649983
H        3.0410274792    1.9948840159   -4.1412091574
H        2.5983819857    2.2889929928   -2.4552071873
H        5.2850748237   -1.9459719337   -6.0052553465
H        5.5638751061   -3.4266685068   -5.0386044611
H        6.8423337748   -2.1918262115   -5.1530990066
H        2.0544472000   -2.4722324514   -6.9993874480
H        2.5584142529   -4.5363995697   -5.7570043865
H        3.1636080849   -2.8138206282   -0.6945670802
H       -0.2906967454    0.9043351979   -1.4382293783
H        1.1461182167   -0.9067490532    0.6081941156
H       -0.5561275629   -0.4620423074    0.6356507894
H        4.7762979982   -0.0323568400    3.7088184297
H        3.1280860946    0.6494182911    3.7235632135
H        4.5333704815    1.7140879504    3.4287675169
44   
Iteration 5 Energy -2321.51235534
S        0.8785251229    1.3886578290    1.4248391045
S        2.8305634774    1.7295930947    0.7677509930
S        3.9611741692    0.0910409820    1.3916023811
O        5.0451644253    1.3056649285   -3.0258040276
O        6.6788905628   -2.6194250460   -2.4581933668
O        5.3659958003   -1.7285658920   -4.0376101863
O        0.3399049830    1.5246698948   -3.6090623940
O        1.1642831080   -2.7066454554   -0.6663040298
N        4.9316806495   -1.2305422346   -1.8664974117
C        3.9415804209    0.8466212578   -2.7982697484
C        3.7645388849   -0.4648796936   -2.1030704109
C        2.5396913255   -0.9309976078   -1.7633805592
C        1.3681255484   -0.0564504526   -1.9980210369
C        1.4389855751    0.6646322088   -3.3604451931
C        2.6831739502    1.5740234412   -3.2542536763
C        5.7371233638   -1.9113626266   -2.7510530908
C        6.1196945096   -2.4860764396   -4.9887287657
C        1.5796634789   -0.3352632101   -4.4335473116
C        1.7508958846   -1.2540240628   -5.2078218253
C        1.9593332221   -2.4747256632   -5.8965984155
C        2.2886290837   -3.5974750288   -5.2007839132
C        2.4190585395   -3.5092701353   -3.7924641539
C        2.4431589230   -3.1478947534   -2.6335294150
C        2.3646767984   -2.4170585001   -1.3601321922
C        0.4478586508    0.3049932599   -1.0902608123
C        0.3882685470   -0.0466063458    0.3600431077
C        4.2117336232    0.4458117004    3.1697465458
H       -0.4537431976    0.9639988598   -3.6938546446
H        0.4554798288   -2.7587204707   -1.3327462816
H        5.2615301334   -1.2809178945   -0.9097783706
H        2.8900433352    2.0617067935   -4.2130033938
H        2.4406732710    2.3525777440   -2.5188922970
H        5.6959404404   -2.2247703471   -5.9603523828
H        6.0090692830   -3.5595551399   -4.8010831060
H        7.1798683891   -2.2173962413   -4.9417830881
H        1.8584312962   -2.5101704944   -6.9806825832
H        2.4434784131   -4.5434182399   -5.7167137308
H        3.1767427214   -2.7095346927   -0.6874746928
H       -0.3079805251    1.0176209889   -1.4185687502
H        1.0365547335   -0.8815335175    0.6221955719
H       -0.6294765204   -0.3026152470    0.6805139217
H        4.7964371267   -0.3864600169    3.5773601419
H        3.2432956061    0.4949139240    3.6776979399
H        4.7591549699    1.3835704691    3.3030444762
44   
Iteration 6 Energy -2321.51538188
S        0.8800666214    1.3926284923    1.3959688149
S        2.8350386777    1.7232170339    0.7401194879
S        3.9530472860    0.0725165995    1.3555268458
O        5.0834384774    1.2822585691   -2.9732955239
O        6.6510307876   -2.6147686866   -2.4541889910
O        5.2524991778   -1.6621041685   -3.9816497449
O        0.3893883464    1.5076194976   -3.6500693194
O        1.1504933172   -2.7010749336   -0.6541429875
N        4.9396315256   -1.2413019346   -1.8024973137
C        3.9736174821    0.8293066268   -2.7649114574
C        3.7791340606   -0.4755129012   -2.0628100343
C        2.5481407996   -0.9366044017   -1.7415279084
C        1.3839315898   -0.0607359318   -2.0064428671
C        1.4832001201    0.6482522329   -3.3737445608
C        2.7266791122    1.5558901215   -3.2528227474
C        5.7066058491   -1.9023100440   -2.7306344691
C        5.9354779992   -2.3794389770   -5.0131259795
C        1.6401995040   -0.3618402860   -4.4349840980
C        1.8232629750   -1.2880300062   -5.1977603562
C        2.0463693818   -2.5144767859   -5.8721267476
C        2.3623982402   -3.6307701433   -5.1603124126
C        2.4646789739   -3.5298620282   -3.7504058444
C        2.4673155086   -3.1591818789   -2.5940472844
C        2.3645445754   -2.4184757773   -1.3287612388
C        0.4482924616    0.3124703051   -1.1197380822
C        0.3848785613   -0.0404602062    0.3287566259
C        4.2157102201    0.4175989150    3.1335983086
H       -0.4002278237    0.9472187508   -3.7485422366
H        0.4544902333   -2.7551229978   -1.3308378474
H        5.2795456197   -1.3020956033   -0.8515432648
H        2.9536483061    2.0344427239   -4.2101337502
H        2.4719487135    2.3400131719   -2.5291988353
H        5.4496788573   -2.0738238793   -5.9405442518
H        5.8305251864   -3.4584523955   -4.8660697665
H        6.9971039955   -2.1184328523   -5.0265218883
H        1.9660691848   -2.5593771166   -6.9558711378
H        2.5285438195   -4.5794497432   -5.6640084752
H        3.1616747066   -2.7048436176   -0.6376998579
H       -0.2961897645    1.0301678409   -1.4573922549
H        1.0278668810   -0.8782174195    0.5903814683
H       -0.6332190639   -0.2888642610    0.6502959742
H        4.7931424850   -0.4215766626    3.5340461006
H        3.2513968315    0.4735571608    3.6457418927
H        4.7728021266    1.3477895081    3.2679569345
44   
Iteration 7 Energy -2321.51498920
S        0.8598606098    1.4386560002    1.3540050040
S        2.8227160636    1.7663177013    0.7155585087
S        3.9172251010    0.0928637369    1.3135271497
O        5.1531028505    1.2186824666   -2.8675554137
O        6.6121463053   -2.6068813903   -2.6470149826
O        5.0816423440   -1.5791011830   -3.9618695068
O        0.4817121592    1.4800487021   -3.6879812323
O        1.1243048129   -2.7066070994   -0.6264430810
N        4.9561922921   -1.2954237451   -1.7369111227
C        4.0311460540    0.7826610960   -2.6923403991
C        3.8050034244   -0.5169814992   -1.9933538904
C        2.5638740161   -0.9637994228   -1.6937492938
C        1.4162330016   -0.0774626633   -1.9997282755
C        1.5635481620    0.6162081481   -3.3715956304
C        2.8073816418    1.5167318010   -3.2246334215
C        5.6411868601   -1.8875140925   -2.7693450570
C        5.6848172385   -2.2144869865   -5.0924395201
C        1.7429284614   -0.4071833673   -4.4161138953
C        1.9401039806   -1.3441314026   -5.1622866078
C        2.1796086184   -2.5778389114   -5.8183819195
C        2.4665003979   -3.6896146751   -5.0872522984
C        2.5240537282   -3.5753281857   -3.6759455529
C        2.4958973910   -3.1933849278   -2.5236214081
C        2.3600555671   -2.4391751995   -1.2712400597
C        0.4556517434    0.3224938296   -1.1521990723
C        0.3686931986   -0.0086577070    0.2980169793
C        4.1837369817    0.4061748718    3.0966160242
H       -0.3017169556    0.9219785058   -3.8250924102
H        0.4422898724   -2.7438801764   -1.3162256672
H        5.3358128076   -1.3930434652   -0.8055064137
H        3.0677082740    1.9844112503   -4.1776022655
H        2.5378057501    2.3078789643   -2.5148678883
H        5.1203410271   -1.8618901021   -5.9555683076
H        5.6089913743   -3.3017985768   -5.0069442396
H        6.7371181691   -1.9330636714   -5.1768580253
H        2.1302404064   -2.6325455222   -6.9024173361
H        2.6460569211   -4.6422466045   -5.5763008865
H        3.1335291426   -2.7209192460   -0.5534480666
H       -0.2596864938    1.0539720623   -1.5184676888
H        0.9947196987   -0.8522802669    0.5785692170
H       -0.6571180861   -0.2302480890    0.6125676578
H        4.7473023999   -0.4478279453    3.4834041926
H        3.2204674371    0.4676017890    3.6080015017
H        4.7546870294    1.3243769807    3.2450634858
44   
Iteration 8 Energy -2321.51671922
S        0.8706262452    1.4376707996    1.3603693070
S        2.8335580198    1.7598923167    0.7159853876
S        3.9240384909    0.0848241171    1.3187567311
O        5.1232904412    1.2350339001   -2.8691617284
O        6.6755778075   -2.5855890130   -2.5478828029
O        5.1698112597   -1.6308317736   -3.9768490084
O        0.4461294353    1.4883828211   -3.6684653282
O        1.1183362218   -2.7034136887   -0.6240891390
N        4.9375638145   -1.3098845016   -1.7772332814
C        4.0040239439    0.7895718215   -2.7010368600
C        3.7880073067   -0.5202127683   -2.0160133256
C        2.5482325611   -0.9664311499   -1.7086996403
C        1.3974759492   -0.0788714166   -1.9983559282
C        1.5315769681    0.6219513170   -3.3685169286
C        2.7760552015    1.5219207097   -3.2274698224
C        5.6911650543   -1.9058260726   -2.7586744235
C        5.8516156188   -2.2436792825   -5.0739888482
C        1.6923867092   -0.3970325998   -4.4200808509
C        1.8680185549   -1.3335793136   -5.1720445730
C        2.0849924520   -2.5674084752   -5.8353436025
C        2.3770398369   -3.6813499908   -5.1094809950
C        2.4577209279   -3.5718061167   -3.6988540212
C        2.4537480894   -3.1939127404   -2.5448011204
C        2.3454223411   -2.4418584700   -1.2885931483
C        0.4427865573    0.3175183956   -1.1424547758
C        0.3655560708   -0.0101307991    0.3088870251
C        4.2097075974    0.4108522049    3.0967945378
H       -0.3315117827    0.9289318504   -3.8325911605
H        0.4198000523   -2.7030628943   -1.2987113909
H        5.2989875530   -1.3980322322   -0.8376169482
H        3.0312506787    1.9959473084   -4.1788720478
H        2.5088233968    2.3078261925   -2.5104820040
H        5.3095972756   -1.9230796657   -5.9638599473
H        5.8236967525   -3.3330717643   -4.9830063886
H        6.8924267633   -1.9129247196   -5.1137835167
H        2.0157783379   -2.6201028533   -6.9188283368
H        2.5457821245   -4.6339046854   -5.6034106584
H        3.1270573552   -2.7278362945   -0.5811618558
H       -0.2627298800    1.0626842620   -1.5010512388
H        0.9841607146   -0.8600647431    0.5880891571
H       -0.6612680441   -0.2153578167    0.6324104724
H        4.7705904364   -0.4448687079    3.4847459208
H        3.2516218909    0.4830407333    3.6169752546
H        4.7893445722    1.3258175357    3.2324806671
44   
Iteration 9 Energy -2321.51695785
S        0.9528192330    1.4386929156    1.3270185742
S        2.9505885334    1.6168501397    0.7328425021
S        3.9310518355   -0.0724773694    1.4700968426
O        5.1163126589    1.2653818156   -2.9266049614
O        6.7540352778   -2.4526012378   -2.5694810888
O        5.1719251115   -1.6407279142   -3.9981713522
O        0.4380180655    1.4818095842   -3.7142844610
O        1.1501313344   -2.6482115724   -0.5740147262
N        4.9459092513   -1.2778762838   -1.7990992532
C        4.0041260154    0.7993394515   -2.7655207008
C        3.7931857540   -0.5007902918   -2.0593656438
C        2.5568978529   -0.9429554659   -1.7340550285
C        1.4039327659   -0.0618780964   -2.0270036356
C        1.5241717302    0.6152866289   -3.4124690998
C        2.7723806758    1.5138043800   -3.3075185259
C        5.7270629891   -1.8392785350   -2.7798739804
C        5.8918865238   -2.2198040612   -5.0893491505
C        1.6622490053   -0.4241009758   -4.4461168763
C        1.8125637053   -1.3798901001   -5.1789240639
C        2.0081801438   -2.6310503043   -5.8158512133
C        2.3077274569   -3.7296573625   -5.0698842638
C        2.4104453831   -3.5904530743   -3.6631641334
C        2.4342980945   -3.1887358476   -2.5174211950
C        2.3603621369   -2.4069029157   -1.2769022848
C        0.4503292336    0.3388197457   -1.1718133198
C        0.3800228841    0.0130296707    0.2801239685
C        4.1714214727    0.3413321088    3.2364668990
H       -0.3216114852    0.9214355561   -3.9437488620
H        0.4255849545   -2.5666870505   -1.2150532522
H        5.3191259514   -1.3261932951   -0.8615755916
H        3.0227727133    1.9576113614   -4.2738835912
H        2.5126661448    2.3225939277   -2.6142053687
H        5.3066786183   -1.9827317285   -5.9774914374
H        5.9738280916   -3.3027387012   -4.9653007970
H        6.8936619268   -1.7899424727   -5.1607823372
H        1.9171469560   -2.7090451154   -6.8956413372
H        2.4646593421   -4.6931550784   -5.5451019907
H        3.1562390131   -2.6792218616   -0.5811756280
H       -0.2444534576    1.0927859938   -1.5310408153
H        0.9707127074   -0.8590775316    0.5502574894
H       -0.6493442572   -0.1496784006    0.6186082849
H        4.6694996444   -0.5192602415    3.6922905027
H        3.2021725687    0.4949543335    3.7155556103
H        4.7964969357    1.2291368290    3.3426579856
44   
Iteration 10 Energy -2321.51709710
S        0.9321863811    1.5315432064    1.3214890908
S        2.9107369532    1.6939074251    0.6587587915
S        3.8816301453   -0.0540592077    1.2616518925
O        5.1013213674    1.2721530710   -2.8583911469
O        6.8091290822   -2.3595836517   -2.5161920205
O        5.1835743549   -1.6736746262   -3.9554991850
O        0.4319321447    1.4756903573   -3.6796640971
O        1.1425084023   -2.6948836676   -0.5643548947
N        4.9283154788   -1.2948709526   -1.7570466385
C        3.9934996945    0.7873768940   -2.7217434275
C        3.7778150253   -0.5199464303   -2.0291828688
C        2.5413557884   -0.9637430137   -1.7085215449
C        1.3918499642   -0.0760744914   -1.9943216629
C        1.5150622922    0.6021193624   -3.3816838539
C        2.7646810994    1.4971704987   -3.2763310489
C        5.7486860101   -1.8088238804   -2.7326296972
C        5.9509556375   -2.2093497625   -5.0362730967
C        1.6492622827   -0.4312779089   -4.4198718579
C        1.7933906418   -1.3832391364   -5.1586995712
C        1.9962557379   -2.6275163656   -5.8060075114
C        2.3047123014   -3.7293354094   -5.0689265324
C        2.3993796582   -3.5979225622   -3.6612122473
C        2.4242711371   -3.2052910500   -2.5124275054
C        2.3492981598   -2.4333237749   -1.2655464374
C        0.4413918060    0.3397228856   -1.1398111948
C        0.3266738935    0.0831350081    0.3246137642
C        4.2061294898    0.2593990844    3.0356201529
H       -0.3089818409    0.9224785389   -3.9794602535
H        0.4141642644   -2.5398026970   -1.1888472831
H        5.3062635530   -1.3157638166   -0.8195083139
H        3.0218362708    1.9344309826   -4.2444770583
H        2.5035303906    2.3127025890   -2.5902352540
H        5.3444702126   -2.0414073731   -5.9267851265
H        6.1293972853   -3.2787917407   -4.8918916169
H        6.9111446553   -1.6933813514   -5.1207313232
H        1.9048626065   -2.6974818093   -6.8870954793
H        2.4719105483   -4.6886718228   -5.5510464485
H        3.1454147389   -2.7099666947   -0.5713914736
H       -0.2330980653    1.0969119700   -1.5312851177
H        0.8833209267   -0.7939163226    0.6468052668
H       -0.7141125629   -0.0261692707    0.6526533551
H        4.6992537530   -0.6379271069    3.4226824137
H        3.2621912455    0.4111276317    3.5648040586
H        4.8602984028    1.1240677671    3.1620425388
44   
Iteration 11 Energy -2321.51778783
S        0.9131656723    1.4954559746    1.3298609399
S        2.8937221565    1.7266798536    0.6983047156
S        3.9099946726    0.0139575202    1.3248772610
O        5.1278121255    1.2181392141   -2.8394280026
O        6.8014550295   -2.3995869799   -2.5602833645
O        5.1589541896   -1.6741135324   -3.9673487759
O        0.4546523281    1.4766491598   -3.6807189700
O        1.1231433390   -2.6906918244   -0.5746911324
N        4.9308505562   -1.3352856718   -1.7680292528
C        4.0078055419    0.7601362238   -2.7118662589
C        3.7855903354   -0.5472078727   -2.0269668564
C        2.5442840144   -0.9787917885   -1.7086360527
C        1.3989171248   -0.0859874683   -1.9978091961
C        1.5329160256    0.5971627799   -3.3812431579
C        2.7880385196    1.4842897087   -3.2673003398
C        5.7407494288   -1.8414210334   -2.7563113524
C        5.9065594840   -2.1915543312   -5.0703290336
C        1.6695008246   -0.4335779577   -4.4213457744
C        1.8140920740   -1.3837058238   -5.1627580066
C        2.0157159977   -2.6259264348   -5.8150753180
C        2.3115290715   -3.7301093096   -5.0761995301
C        2.3960851350   -3.6036262452   -3.6675380691
C        2.4155992621   -3.2144174583   -2.5175329700
C        2.3375956651   -2.4451884698   -1.2686291963
C        0.4399736886    0.3271983036   -1.1528174849
C        0.3395104497    0.0491358327    0.3083940987
C        4.2011890715    0.3454140501    3.1008993110
H       -0.2878594251    0.9297562845   -3.9870509547
H        0.4000629952   -2.5248351574   -1.2026837375
H        5.3174859492   -1.3643367356   -0.8343481283
H        3.0507953679    1.9211145114   -4.2339641874
H        2.5325475149    2.3007749419   -2.5805730721
H        5.2901442188   -1.9990895928   -5.9487714704
H        6.0765648201   -3.2648990743   -4.9499639720
H        6.8702164254   -1.6827639154   -5.1562917274
H        1.9316783127   -2.6922540070   -6.8966424594
H        2.4759955314   -4.6892996964   -5.5587155771
H        3.1276977620   -2.7296312819   -0.5714492446
H       -0.2432700091    1.0784414704   -1.5409841695
H        0.9080171967   -0.8259017643    0.6170195535
H       -0.6997107095   -0.0799986501    0.6323320362
H        4.7161587878   -0.5338170367    3.5000609852
H        3.2457829738    0.4708283423    3.6155957517
H        4.8261617813    1.2306263026    3.2309806329
44   
Iteration 12 Energy -2321.51794333
S        0.8810627976    1.4356276530    1.3363082473
S        2.8417265819    1.7105444544    0.6659911408
S        3.9282446561    0.0567543506    1.3310320925
O        5.1417403252    1.1838552564   -2.7922007410
O        6.7657502659   -2.4537999190   -2.5806857672
O        5.1324072982   -1.6764724435   -3.9715087936
O        0.4857926625    1.4887209679   -3.6723387810
O        1.0569066919   -2.7104927719   -0.6021758271
N        4.8980115892   -1.4021932745   -1.7636512360
C        4.0195054227    0.7312442356   -2.6603561261
C        3.7691072358   -0.5840543994   -1.9981431776
C        2.5211075996   -1.0025936572   -1.6879501767
C        1.3907160780   -0.0968305344   -1.9901334613
C        1.5517428704    0.5975837482   -3.3644819322
C        2.8135380034    1.4716725338   -3.2226810324
C        5.7076263911   -1.8870935135   -2.7636136457
C        5.8770596258   -2.1730447924   -5.0860525351