48   
Iteration 0 Energy -1329.36851271
H        4.1933210000    6.9754300000   -1.6206110000
C        3.2013860000    6.6579010000   -1.9246900000
H        2.5534440000    7.5079470000   -2.1112870000
H        2.7288480000    6.0495630000   -1.1605840000
O        3.3526980000    5.9112070000   -3.0980420000
C        2.0681970000    5.4304370000   -3.5985600000
H        1.4127150000    6.2750140000   -3.8160770000
O        1.3872450000    4.5699730000   -2.6264170000
C        0.0841770000    3.9968410000   -3.0831000000
H       -0.5942830000    4.8228550000   -3.3063830000
C       -0.5265990000    3.1522530000   -1.9480650000
H        0.1240080000    2.3082680000   -1.7142270000
H       -1.5015940000    2.7630990000   -2.2413990000
O       -0.6842490000    3.9620040000   -0.7677890000
H        0.1626130000    4.3725460000   -0.5684830000
C        0.2858980000    3.1758840000   -4.2796490000
H        0.8837140000    2.2993420000   -4.0212810000
C        1.0028290000    3.9762600000   -5.3939710000
H        0.3379330000    4.7652660000   -5.7515260000
O        1.2937510000    3.0804870000   -6.5017040000
H        1.8105290000    3.5795160000   -7.1490060000
C        2.3191060000    4.6143660000   -4.8967180000
H        3.0486930000    3.8280100000   -4.6922390000
O        2.8481670000    5.4841830000   -5.9404020000
H        3.6312980000    5.9288990000   -5.5909890000
O       -1.0029700000    2.7328370000   -4.7687640000
C       -0.8688300000    1.9067440000   -5.9650820000
H       -0.2682710000    1.0233700000   -5.7431370000
O       -0.2171350000    2.6315740000   -7.0641160000
C       -0.1479370000    1.9130140000   -8.3732790000
H        0.4430460000    1.0060260000   -8.2298410000
C        0.5734310000    2.7906400000   -9.4115090000
H        0.0699880000    3.7519490000   -9.5242550000
H        0.5910900000    2.2932350000  -10.3812390000
O        1.9250530000    3.0142520000   -8.9778200000
H        1.8912680000    3.4351960000   -8.1145790000
C       -1.4503940000    1.5469190000   -8.8528020000
H       -1.3479720000    0.9469220000   -9.7582270000
O       -2.2056790000    2.7402430000   -9.1770270000
H       -3.1071480000    2.4593720000   -9.3857240000
C       -2.2068490000    0.7283240000   -7.7814510000
H       -1.6710230000   -0.2112950000   -7.6315460000
O       -3.5359390000    0.4061010000   -8.2781580000
H       -4.0035950000   -0.0616460000   -7.5727510000
C       -2.2913000000    1.4718940000   -6.4275010000
H       -2.9285630000    2.3527120000   -6.5300590000
O       -2.8820620000    0.5769020000   -5.4382220000
H       -2.8649690000    1.0289240000   -4.5858090000
48   
Iteration 1 Energy -1329.48266519
H        4.1225858311    7.0262994905   -1.4886599501
C        3.1461599976    6.6987523518   -1.8276747922
H        2.4954558865    7.5436099086   -2.0292424961
H        2.6574543242    6.0810146465   -1.0821343767
O        3.3466819536    5.9610129198   -3.0014526049
C        2.0998311793    5.4681214883   -3.5503546345
H        1.4401929730    6.3033960280   -3.7860787196
O        1.3963628737    4.5900898712   -2.6105481917
C        0.1209544453    3.9996670796   -3.1201883661
H       -0.5650160147    4.8126514605   -3.3629282178
C       -0.5091074089    3.1437297295   -2.0083131787
H        0.1493038268    2.3121452912   -1.7557165391
H       -1.4652205232    2.7384957150   -2.3338140052
O       -0.7217068007    3.9429558527   -0.8361579509
H        0.1083643152    4.3672111766   -0.6093813777
C        0.3810801767    3.1906002705   -4.3134878772
H        0.9851738300    2.3235415363   -4.0413117933
C        1.1269518009    4.0101138933   -5.3948105512
H        0.4541126619    4.7850380329   -5.7654480057
O        1.4777617043    3.1400187545   -6.4924079087
H        1.9734907017    3.6034246191   -7.1695748748
C        2.4129829293    4.6653220656   -4.8435598933
H        3.1464883013    3.8896768587   -4.6197824568
O        2.9616030689    5.5492548508   -5.8544113509
H        3.7211226017    6.0017529259   -5.4728182067
O       -0.9254383185    2.7262237877   -4.8162584442
C       -0.8896382227    1.8859188571   -6.0053536712
H       -0.2954546381    0.9961211003   -5.7964431630
O       -0.2634516626    2.5997748600   -7.1258265724
C       -0.2330306060    1.8724276482   -8.4312354041
H        0.3455748871    0.9563528649   -8.3003437435
C        0.5297320105    2.7488870080   -9.4485722238
H        0.0543952442    3.7232666879   -9.5582428833
H        0.5360391676    2.2523406937  -10.4173033173
O        1.9137807057    2.9506220363   -9.0281788498
H        1.9724690617    3.3903353685   -8.1597703985
C       -1.5491444298    1.5104797667   -8.8740876057
H       -1.4744135514    0.9041609243   -9.7774292077
O       -2.3035211281    2.7013901779   -9.1847918502
H       -3.2085438393    2.4244836081   -9.3669693702
C       -2.2816707024    0.7031317209   -7.7778085579
H       -1.7481672711   -0.2381994990   -7.6352519129
O       -3.6189363454    0.3886147045   -8.2366661842
H       -4.0699180455   -0.0698079472   -7.5187662404
C       -2.3265626711    1.4560370848   -6.4270773715
H       -2.9597028050    2.3392258804   -6.5188909882
O       -2.8956346903    0.5733743554   -5.4234625751
H       -2.8547417832    1.0287014911   -4.5771081507
48   
Iteration 2 Energy -1329.56268185
H        4.0209523599    6.9895907716   -1.3842991863
C        3.0495902005    6.6835500756   -1.7448744761
H        2.4341233020    7.5551708509   -1.9506788408
H        2.5439435662    6.0850425660   -0.9985197889
O        3.2672425773    5.9402308586   -2.9211280628
C        2.1046717870    5.4734125007   -3.5195310145
H        1.4576793853    6.3067431780   -3.7770905930
O        1.3652738014    4.5858823519   -2.6175236771
C        0.1223993981    3.9837521586   -3.1897002548
H       -0.5582930985    4.7837851417   -3.4651454032
C       -0.5178143949    3.1709340619   -2.0736709854
H        0.1434188077    2.3564673570   -1.7876458815
H       -1.4548921612    2.7563960321   -2.4111469739
O       -0.7818178845    3.9788040149   -0.9514402886
H        0.0305356070    4.4119808970   -0.7185296898
C        0.4478328368    3.1805746259   -4.3708042085
H        1.0475459561    2.3203938300   -4.0867395195
C        1.2377882794    4.0115060810   -5.4136274264
H        0.5732154534    4.7748871869   -5.8083412113
O        1.6108874519    3.1499765963   -6.4520591653
H        2.0846866357    3.6078987164   -7.1368455457
C        2.4886215428    4.6777785085   -4.7980600264
H        3.2082283877    3.9098807965   -4.5348962167
O        3.0523904520    5.5366805584   -5.7671890750
H        3.7824453215    5.9884604083   -5.3576452503
O       -0.8275756429    2.7159598921   -4.8866205871
C       -0.8323101018    1.8940346528   -6.0342544430
H       -0.2370731699    1.0069494535   -5.8384130381
O       -0.2559803403    2.5974228753   -7.1860740422
C       -0.2887066934    1.8617428235   -8.4857094136
H        0.2861770866    0.9436232204   -8.3769718503
C        0.4658986038    2.7373604038   -9.4962027474
H       -0.0075674784    3.7075448961   -9.5723091105
H        0.4505278068    2.2589943912  -10.4660626529
O        1.8535264686    2.9068965734   -9.1702209156
H        1.9717845405    3.3302370949   -8.3077846824
C       -1.6242813245    1.5017120391   -8.8666345048
H       -1.5977844367    0.8868950747   -9.7637225173
O       -2.3741766138    2.6711030977   -9.1440219934
H       -3.2762939901    2.3996899187   -9.2790516449
C       -2.3085777438    0.7041595663   -7.7326896158
H       -1.7786522822   -0.2372102548   -7.6030640756
O       -3.6352221958    0.4202064420   -8.1287135004
H       -4.0606946836   -0.0199231608   -7.4000343300
C       -2.2888651313    1.4668367331   -6.3865060393
H       -2.9115052376    2.3507191245   -6.4606812694
O       -2.8170987428    0.6006422401   -5.3949384436
H       -2.7491193955    1.0463827504   -4.5582828443
48   
Iteration 3 Energy -1329.60549535
H        3.9353400482    6.9585090577   -1.2833269386
C        2.9701068213    6.6804434099   -1.6782655619
H        2.4085730181    7.5736603436   -1.9380174894
H        2.4176705301    6.1177946484   -0.9398651353
O        3.2098294739    5.8998624507   -2.8244806394
C        2.1133114688    5.4571881910   -3.4889104574
H        1.4854188447    6.2877984851   -3.8063939459
O        1.3108043980    4.5858864811   -2.6271829925
C        0.1081564415    3.9766305376   -3.2724649689
H       -0.5453165248    4.7755659221   -3.6070871859
C       -0.5839398111    3.2173589324   -2.1551531133
H        0.0635806035    2.4098738332   -1.8184215466
H       -1.5056820022    2.7922640214   -2.5210962352
O       -0.9054720107    4.0646151127   -1.0938843897
H       -0.1136389940    4.5142680081   -0.8287596045
C        0.5096434685    3.1543798550   -4.4163092302
H        1.0906410483    2.2944312885   -4.0949823227
C        1.3738270668    3.9690261151   -5.4178426581
H        0.7335705018    4.7309185516   -5.8568831175
O        1.8117100019    3.0836211183   -6.3907976611
H        2.2487552523    3.5677795749   -7.0807077907
C        2.5812869941    4.6411652766   -4.7260087686
H        3.2681296313    3.8711645140   -4.3883672417
O        3.1980731521    5.4643486495   -5.6710429958
H        3.9139295067    5.9309172468   -5.2574150560
O       -0.7197088017    2.7085527375   -4.9685330269
C       -0.7388347572    1.9099778173   -6.0848159085
H       -0.1237707000    1.0276849249   -5.9259682336
O       -0.2462048881    2.6221098993   -7.2659634955
C       -0.3537785620    1.8907479042   -8.5603053247
H        0.2383018967    0.9802956777   -8.4815663262
C        0.3487022961    2.7896270305   -9.5527509618
H       -0.1360809002    3.7568968927   -9.5772544253
H        0.3072647397    2.3511510834  -10.5408626565
O        1.7082831367    2.8992934905   -9.2437103773
H        1.8778402306    3.2645328273   -8.3829297714
C       -1.7045730132    1.5133264990   -8.8604114332
H       -1.7212415411    0.8892634974   -9.7527048254
O       -2.4852892983    2.6581101804   -9.0896968939
H       -3.3920336699    2.3887976824   -9.1704844730
C       -2.3053108116    0.7034141305   -7.6885135771
H       -1.7531895768   -0.2291892896   -7.5835057792
O       -3.6383223399    0.4258430083   -8.0084750101
H       -4.0464425240   -0.0130748747   -7.2719601773
C       -2.2100234964    1.4653506511   -6.3442625152
H       -2.8363394130    2.3486165680   -6.3885071465
O       -2.6696373027    0.5918286362   -5.3482195585
H       -2.5808346938    1.0091312849   -4.5010279616
48   
Iteration 4 Energy -1329.62929062
H        3.8661164542    7.0004161966   -1.2536604411
C        2.9182810328    6.7349099021   -1.6965074639
H        2.4373315329    7.6309507252   -2.0783925332
H        2.2870156988    6.2739933024   -0.9506100272
O        3.2023439349    5.8375954726   -2.7408656834
C        2.1465151211    5.3970254535   -3.4786835646
H        1.5663930891    6.2234617927   -3.8912948686
O        1.2519622462    4.5994939939   -2.6392357171
C        0.0854051956    3.9830727004   -3.3405838798
H       -0.5066095108    4.7847261300   -3.7692256786
C       -0.6999825628    3.3214092709   -2.2198075200
H       -0.0995750051    2.5178800150   -1.7964377002
H       -1.6114549617    2.8945963084   -2.6125796398
O       -1.0718892029    4.2450547165   -1.2492187357
H       -0.2861391866    4.6919717172   -0.9628453961
C        0.5487431705    3.0852246564   -4.4009449484
H        1.0806346764    2.2251395015   -3.9990041439
C        1.5186287193    3.8200089378   -5.3797946992
H        0.9411948512    4.5731495591   -5.9095009802
O        2.0780933474    2.8798791867   -6.2634274019
H        2.4289451586    3.4377513937   -6.9571381912
C        2.6857313953    4.4987282911   -4.6266595629
H        3.3061702792    3.7288387519   -4.1774466933
O        3.3936758671    5.2402273583   -5.5718747829
H        4.1126758967    5.6897589544   -5.1463894686
O       -0.6418862458    2.6760022016   -5.0221113846
C       -0.6547903418    1.8931570448   -6.1350015710
H        0.0174972306    1.0422930464   -6.0446193529
O       -0.2678479660    2.6719026071   -7.3053811328
C       -0.4351874665    1.9963653997   -8.6153158977
H        0.1955399065    1.1099769972   -8.6050032865
C        0.1888190282    2.9805142526   -9.5697606712
H       -0.3112109841    3.9385449806   -9.4791482731
H        0.0840955343    2.6450365542  -10.5950918903
O        1.5447359801    3.0413799730   -9.3182941858
H        1.6905303810    3.2518419359   -8.4059747026
C       -1.7849564153    1.5764470668   -8.8535767053
H       -1.8144131172    0.9696088605   -9.7584025053
O       -2.6219422475    2.6888243632   -9.0048712272
H       -3.5178556573    2.3783829722   -9.0416466903
C       -2.2772036585    0.6912372109   -7.6853694072
H       -1.6803755929   -0.2192488103   -7.6490963265
O       -3.6169582634    0.3869840949   -7.9403878313
H       -3.9726693474   -0.0852345174   -7.1980053674
C       -2.1235613211    1.4025393115   -6.3174775963
H       -2.7686968576    2.2738226796   -6.3031611175
O       -2.4932570501    0.4767925106   -5.3371232581
H       -2.4015275211    0.8693249680   -4.4791467019
48   
Iteration 5 Energy -1329.63677840
H        3.8763237783    6.9775214914   -1.1807715894
C        2.9368127579    6.7280753477   -1.6512201804
H        2.5054131983    7.6259746265   -2.0841133683
H        2.2619305907    6.3201702111   -0.9115085849
O        3.2232375272    5.7815440846   -2.6487899173
C        2.1811274598    5.3855053577   -3.4220198470
H        1.6431849879    6.2376836106   -3.8356605515
O        1.2402225041    4.6044783694   -2.6125732537
C        0.0800871537    4.0216868248   -3.3538619048
H       -0.4796181886    4.8411312014   -3.7904494331
C       -0.7447783020    3.3671118071   -2.2595950215
H       -0.1691387629    2.5483981827   -1.8315652287
H       -1.6532537833    2.9596805767   -2.6804795683
O       -1.1197452696    4.2906928587   -1.2908126323
H       -0.3345254518    4.7195660347   -0.9769629092
C        0.5550955236    3.1212646522   -4.4067135186
H        1.0507793087    2.2471361088   -3.9898509195
C        1.5681682746    3.8308308544   -5.3453455259
H        1.0372539068    4.5975401211   -5.8963232556
O        2.1382178135    2.8869700683   -6.2293674665
H        2.5354937848    3.3884203145   -6.9275586824
C        2.7301106711    4.4766694202   -4.5573070752
H        3.3093285421    3.6875928462   -4.0892220740
O        3.4852012621    5.2005544121   -5.4767888236
H        4.2318296104    5.5889416628   -5.0400694738
O       -0.6291134660    2.7264950229   -5.0720074676
C       -0.6439700310    1.9162811086   -6.1763600735
H        0.0684444835    1.1026289351   -6.0869692427
O       -0.3076062805    2.7009623993   -7.3635573540
C       -0.4862723248    2.0113404860   -8.6687852359
H        0.1774553203    1.1502594541   -8.6624659196
C        0.1025011400    3.0143720768   -9.6495129158
H       -0.4104852633    3.9631943266   -9.5340540234
H       -0.0347627108    2.6864412238  -10.6741703469
O        1.4778026406    3.1186236504   -9.4088992181
H        1.5728145754    3.2458293630   -8.4739169738
C       -1.8281159290    1.5481386482   -8.8710806048
H       -1.8446765119    0.9199021931   -9.7616293462
O       -2.7074588947    2.6231519610   -9.0256608758
H       -3.5933472083    2.2838145630   -9.0331298226
C       -2.2632499937    0.6546306661   -7.6836511946
H       -1.6378844106   -0.2362140041   -7.6622665310
O       -3.5998389261    0.3106313868   -7.9014310793
H       -3.9290462027   -0.1533445778   -7.1423258082
C       -2.0999816121    1.3799428913   -6.3231493437
H       -2.7615365555    2.2381563108   -6.3049994399
O       -2.4217463703    0.4565681764   -5.3279194056
H       -2.3715987461    0.8748126422   -4.4792236410
48   
Iteration 6 Energy -1329.64042320
H        3.8951686515    6.9257741228   -1.0851892676
C        2.9684050089    6.6943774174   -1.5899635878
H        2.5869813055    7.5924136206   -2.0670916533
H        2.2457168672    6.3369436532   -0.8681733975
O        3.2574495025    5.7068315240   -2.5459434637
C        2.2301898917    5.3586413532   -3.3741677652
H        1.7425985131    6.2371885727   -3.7901314344
O        1.2308735093    4.6017615660   -2.6132636648
C        0.0781554635    4.0713814271   -3.4039031864
H       -0.4411393955    4.9153299531   -3.8440756496
C       -0.8111650943    3.4170960536   -2.3598649533
H       -0.2786515251    2.5734012682   -1.9251453066
H       -1.7136182223    3.0476849964   -2.8258229081
O       -1.1977513408    4.3284888438   -1.3812377403
H       -0.4096851897    4.7189512563   -1.0259830285
C        0.5614005882    3.1710622462   -4.4526808298
H        1.0013662766    2.2743970879   -4.0231744837
C        1.6374954493    3.8541977861   -5.3430638461
H        1.1657118812    4.6440071977   -5.9156497383
O        2.2114773626    2.8986770850   -6.2072455999
H        2.6608917191    3.3686898943   -6.8988621812
C        2.7901659837    4.4452411555   -4.5007975362
H        3.3225783096    3.6314356847   -4.0199538599
O        3.6127843540    5.1561328001   -5.3733039171
H        4.3810417066    5.4535847563   -4.9029129339
O       -0.6333287719    2.8248484175   -5.1350801454
C       -0.6435829825    1.9722781052   -6.2076273688
H        0.1109017517    1.2026547128   -6.1072833137
O       -0.3682809942    2.7509674248   -7.4105326315
C       -0.5376873695    2.0369564204   -8.6995204692
H        0.1735968019    1.2146856973   -8.6966190894
C       -0.0333295575    3.0647892015   -9.6943146345
H       -0.5844655103    3.9889624194   -9.5675673317
H       -0.1595661211    2.7269675954  -10.7149810197
O        1.3349061741    3.2546966300   -9.4424730339
H        1.4020760592    3.2904675553   -8.4922602307
C       -1.8570398339    1.5033835776   -8.8720516509
H       -1.8528262548    0.8610369771   -9.7533280892
O       -2.7921701578    2.5277824730   -9.0288725399
H       -3.6585737622    2.1402041980   -9.0033257114
C       -2.2243547543    0.6059041323   -7.6644454334
H       -1.5585542311   -0.2545830737   -7.6512285223
O       -3.5480315129    0.1895848523   -7.8481778435
H       -3.8367508926   -0.2624161588   -7.0646778993
C       -2.0742774425    1.3630150877   -6.3188082321
H       -2.7741172811    2.1906624325   -6.3054877396
O       -2.3380474102    0.4486587875   -5.2949756606
H       -2.3578522021    0.9065609213   -4.4648558094
48   
Iteration 7 Energy -1329.64123468
H        3.9105012805    6.8610172034   -1.0002059604
C        2.9825003264    6.6478294816   -1.5100640044
H        2.6099105434    7.5578402392   -1.9713386622
H        2.2546594784    6.2848424875   -0.7959427471
O        3.2662231793    5.6738323449   -2.4817804888
C        2.2450310831    5.3626538857   -3.3300741393
H        1.7711168202    6.2570165585   -3.7264444764
O        1.2322424932    4.5931666731   -2.6019881989
C        0.0832152141    4.0960497521   -3.4188800743
H       -0.4276755293    4.9560447634   -3.8375530411
C       -0.8182626293    3.4241901232   -2.3975462821
H       -0.2987340893    2.5629037634   -1.9816393503
H       -1.7229068281    3.0826214439   -2.8769751839
O       -1.1970045673    4.3151417623   -1.3955074204
H       -0.4053723125    4.6838134291   -1.0251176103
C        0.5692266646    3.2223381368   -4.4893732614
H        0.9980109399    2.3104101272   -4.0823545378
C        1.6583961398    3.9212804502   -5.3469792933
H        1.1989436576    4.7339969219   -5.9006516081
O        2.2355101914    2.9906627356   -6.2236682155
H        2.7380607722    3.4528192538   -6.8838387127
C        2.8079357957    4.4774113911   -4.4767583822
H        3.3320663862    3.6449227363   -4.0192252504
O        3.6425855674    5.2100533874   -5.3199187243
H        4.4249990523    5.4547572948   -4.8429800262
O       -0.6273173181    2.9030413208   -5.1902940017
C       -0.6541244247    2.0137682835   -6.2358049324
H        0.1064562383    1.2513460887   -6.1205816135
O       -0.3960406717    2.7611711747   -7.4676635776
C       -0.5628910287    2.0004383436   -8.7368444441
H        0.1616454891    1.1900795865   -8.7100265397
C       -0.0694621108    3.0078411947   -9.7596386803
H       -0.6679803107    3.9069380106   -9.6866134584
H       -0.1432781607    2.6165920148  -10.7656787339
O        1.2852479130    3.2957440670   -9.4931236410
H        1.3506030530    3.3376753398   -8.5435032645
C       -1.8756363235    1.4418101872   -8.8810688666
H       -1.8707024596    0.7723414079   -9.7418507635
O       -2.8270147805    2.4480590925   -9.0632990517
H       -3.6879704927    2.0514264537   -9.0104532960
C       -2.2204273096    0.5797061305   -7.6428933206
H       -1.5413479429   -0.2696757907   -7.6076258289
O       -3.5392582388    0.1373813420   -7.8019826549
H       -3.8177972418   -0.2818950683   -6.9969757393
C       -2.0750939128    1.3793015939   -6.3225863859
H       -2.7906672211    2.1934581665   -6.3270824858
O       -2.3192620608    0.4872026481   -5.2729794470
H       -2.3917753176    0.9703917439   -4.4607198606
48   
Iteration 8 Energy -1329.64197661
H        3.9025284130    6.7905403208   -0.9042499869
C        2.9772669145    6.5895186416   -1.4238634267
H        2.6014043255    7.5119805131   -1.8566762464
H        2.2486152181    6.2000150920   -0.7246037138
O        3.2685352911    5.6489776403   -2.4260150119
C        2.2556249246    5.3677336691   -3.2935735772
H        1.7935789451    6.2764968260   -3.6708006374
O        1.2308110081    4.5844436297   -2.5987670920
C        0.0876072708    4.1176155222   -3.4411125965
H       -0.4126231211    4.9924292997   -3.8417279658
C       -0.8317144595    3.4261478266   -2.4489427399
H       -0.3276197393    2.5468531166   -2.0526931700
H       -1.7368663426    3.1127949900   -2.9461322769
O       -1.2085936468    4.2940935721   -1.4249229843
H       -0.4154516535    4.6421205207   -1.0378104286
C        0.5791473975    3.2709368889   -4.5308614404
H        0.9971882455    2.3432859763   -4.1495486619
C        1.6818591051    3.9884216025   -5.3571270147
H        1.2282812835    4.8207056666   -5.8877074581
O        2.2635589641    3.0810556672   -6.2552301153
H        2.8052486230    3.5467810382   -6.8835250979
C        2.8252753384    4.5121913995   -4.4591089253
H        3.3430175114    3.6634417752   -4.0256534517
O        3.6709289614    5.2656262299   -5.2762691907
H        4.4626481252    5.4714804479   -4.7962088477
O       -0.6119433075    2.9884700876   -5.2547802177
C       -0.6480669677    2.0611808789   -6.2633696867
H        0.1181194843    1.3053553812   -6.1328780704
O       -0.4092876579    2.7698495085   -7.5217248028
C       -0.5773431887    1.9646473945   -8.7637275577
H        0.1545660566    1.1610721679   -8.7131550114
C       -0.1127496000    2.9448944496   -9.8245822234
H       -0.7633074840    3.8101570682   -9.8218106914
H       -0.1316491902    2.4909733667  -10.8074181814
O        1.2168607017    3.3107558256   -9.5450240330
H        1.2883268675    3.3817033289   -8.5974916502
C       -1.8847964397    1.3860501481   -8.8766339920
H       -1.8850839583    0.6922565892   -9.7175151190
O       -2.8522438341    2.3760973560   -9.0779999855
H       -3.7074782136    1.9711374081   -8.9990856213
C       -2.2076317064    0.5619761180   -7.6079850236
H       -1.5170128494   -0.2766979805   -7.5485463641
O       -3.5216128444    0.0960452157   -7.7385938422
H       -3.7872931318   -0.2921046166   -6.9136468426
C       -2.0613307328    1.4063399271   -6.3170026228
H       -2.7932261670    2.2054975722   -6.3381175879
O       -2.2809759758    0.5416041861   -5.2369367913
H       -2.3980117553    1.0488104651   -4.4449384838
48   
Iteration 9 Energy -1329.64250764
H        3.8900900576    6.6792671559   -0.7742731948
C        2.9649490641    6.4943494395   -1.3000300487
H        2.5668362335    7.4355815598   -1.6675958075
H        2.2503392163    6.0424769654   -0.6246588293
O        3.2679536446    5.6305027065   -2.3656106712
C        2.2575649246    5.3878762686   -3.2477976585
H        1.7934280830    6.3118337111   -3.5849537863
O        1.2346061304    4.5702344133   -2.5946094055
C        0.0954191990    4.1405017914   -3.4612617871
H       -0.4034138710    5.0323430020   -3.8245100945
C       -0.8292554145    3.4047158547   -2.5062048131
H       -0.3323576426    2.5032458667   -2.1534795166
H       -1.7358493056    3.1237645752   -3.0208247024
O       -1.2057299945    4.2222626135   -1.4414404242
H       -0.4121922442    4.5505523805   -1.0381192256
C        0.5901292424    3.3450591450   -4.5882066206
H        1.0045206932    2.3987582058   -4.2516897034
C        1.6924407031    4.1081236855   -5.3777788052
H        1.2285263068    4.9619945319   -5.8639280208
O        2.2750396626    3.2546347629   -6.3220460535
H        2.8265433170    3.7721799724   -6.8991570874
C        2.8317646249    4.5921369376   -4.4520813385
H        3.3548951651    3.7260848296   -4.0619216633
O        3.6749441145    5.3894457658   -5.2316081553
H        4.4720591272    5.5649545193   -4.7483450525
O       -0.5894229094    3.1058570187   -5.3400346280
C       -0.6428760553    2.1272116083   -6.2970811585
H        0.1245813399    1.3779849130   -6.1347720873
O       -0.4118795401    2.7663792245   -7.5944921012
C       -0.5770368593    1.8874331767   -8.7882982488
H        0.1596351056    1.0921000584   -8.6924758475
C       -0.1325631654    2.8026326263   -9.9154971305
H       -0.8435415617    3.6119147872  -10.0247332389
H       -0.0826414134    2.2503237358  -10.8468665204
O        1.1551404713    3.2863358616   -9.6516177723
H        1.2206442360    3.4470860852   -8.7161436572
C       -1.8815829663    1.2956913030   -8.8635822578
H       -1.8865861483    0.5588928255   -9.6665917087
O       -2.8567000891    2.2696907736   -9.1118339151
H       -3.7081777175    1.8626154808   -9.0073105011
C       -2.1953818777    0.5449052635   -7.5497614155
H       -1.4970585320   -0.2828589488   -7.4416400260
O       -3.5052893137    0.0605133055   -7.6486977914
H       -3.7650093792   -0.2811931545   -6.8014581919
C       -2.0512932275    1.4602359039   -6.3089577518
H       -2.7941655955    2.2473285685   -6.3638620488
O       -2.2541612112    0.6476515120   -5.1834969699
H       -2.4207991291    1.1901478566   -4.4247598044
48   
Iteration 10 Energy -1329.64261320
H        3.8694009212    6.6037058976   -0.6886873354
C        2.9458573423    6.4288793135   -1.2204957467
H        2.5319182258    7.3803633357   -1.5416680910
H        2.2411035387    5.9340026928   -0.5656556626
O        3.2612768080    5.6214025710   -2.3260094587
C        2.2535395832    5.4039877630   -3.2170717433
H        1.7870196938    6.3371487858   -3.5253828540
O        1.2306424198    4.5609891163   -2.5935542183
C        0.0963609855    4.1564705556   -3.4789028520
H       -0.4033735552    5.0583807847   -3.8153043163
C       -0.8304353411    3.3889749790   -2.5521065741
H       -0.3368680207    2.4735532474   -2.2320429436
H       -1.7355723901    3.1289411291   -3.0801515834
O       -1.2106390594    4.1660589326   -1.4599756918
H       -0.4190050071    4.4843296653   -1.0453087910
C        0.5975321353    3.3998677941   -4.6292117159
H        1.0160588035    2.4453418175   -4.3233937367
C        1.6973452000    4.1913458602   -5.3883939133
H        1.2285447684    5.0611141436   -5.8409166824
O        2.2739649813    3.3686142957   -6.3658617315
H        2.8491155536    3.8937157939   -6.9111127905
C        2.8330342427    4.6491537609   -4.4453185286
H        3.3577172610    3.7734084310   -4.0792716355
O        3.6752920021    5.4716502807   -5.1983561900
H        4.4699184708    5.6362149368   -4.7076501697
O       -0.5644917633    3.1864691091   -5.4118731897
C       -0.6220235066    2.1685013405   -6.3250386469
H        0.1457396652    1.4248286876   -6.1401248416
O       -0.4030435582    2.7595451975   -7.6478280777
C       -0.5755021164    1.8367651444   -8.8068159164
H        0.1613173974    1.0446383136   -8.6903620994
C       -0.1505828860    2.7056902985   -9.9790375683
H       -0.8888944993    3.4799949628  -10.1478466529
H       -0.0755634959    2.0979888831  -10.8741695867
O        1.1152464975    3.2378744158   -9.7310688748
H        1.1630899435    3.4573165669   -8.8053774828
C       -1.8800185938    1.2412473172   -8.8485692458
H       -1.8922028110    0.4771496015   -9.6254988632
O       -2.8600215091    2.2042975393   -9.1187794174
H       -3.7088312647    1.7969251735   -8.9968003975
C       -2.1817731986    0.5385587839   -7.5047544787
H       -1.4806205751   -0.2831080187   -7.3698838114
O       -3.4902899991    0.0475288698   -7.5757186130
H       -3.7394348054   -0.2703572448   -6.7164059671
C       -2.0288807800    1.4989808082   -6.2998048764
H       -2.7754424132    2.2803552341   -6.3774167033
O       -2.2170140914    0.7284325392   -5.1422122805
H       -2.4134253335    1.2945217209   -4.4089055691
48   
Iteration 11 Energy -1329.64275785
H        3.8564058041    6.5567274160   -0.6339677320
C        2.9336508945    6.3883481741   -1.1693742978
H        2.5078996844    7.3450561998   -1.4580387533
H        2.2367435722    5.8636079226   -0.5298855055
O        3.2545536437    5.6218591352   -2.3023513521
C        2.2464388127    5.4198769239   -3.1951598667
H        1.7726900049    6.3575024014   -3.4775474594
O        1.2298122630    4.5562341636   -2.5901542809
C        0.0972578442    4.1660455147   -3.4840880084
H       -0.4079505509    5.0731253624   -3.7982186381
C       -0.8240136464    3.3725803325   -2.5747546256
H       -0.3283787857    2.4491982381   -2.2817034000
H       -1.7292793328    3.1242061877   -3.1088785386
O       -1.2048362602    4.1184430387   -1.4629303916
H       -0.4144702526    4.4352286492   -1.0448630231
C        0.6010652685    3.4389293900   -4.6521937204
H        1.0284220025    2.4825179834   -4.3663439041
C        1.6933981463    4.2553180551   -5.3932902981