8    
Iteration 0 Energy -78.79071020
C       -4.1325159929    0.7041234702   -0.0085530744
H       -3.3698022078    0.0615176664   -0.4310323333
H       -4.4487516667    1.4095878654   -0.7661703678
H       -4.9801273766    0.0730816662    0.2316818414
C       -3.6123686250    1.4305912390    1.2602526406
H       -3.3141564696    2.4469372603    1.0338160619
H       -4.3891597472    1.4893922740    2.0135850037
H       -2.7679303163    0.9112006495    1.6947941979
8    
Iteration 1 Energy -78.79020274
C       -4.1306630295    0.7087889151   -0.0124101407
H       -3.3815271332    0.0391980143   -0.4178644691
H       -4.4385241944    1.4115696392   -0.7764642123
H       -4.9858086621    0.0893030477    0.2327836013
C       -3.6072621069    1.4300022772    1.2586867676
H       -3.3401886840    2.4575806785    1.0425751654
H       -4.3851907683    1.4741931590    2.0123651041
H       -2.7560251806    0.9186407827    1.6903846155
8    
Iteration 2 Energy -78.78995859
C       -4.1297949660    0.7086387852   -0.0132899980
H       -3.3895609705    0.0229112937   -0.4081304885
H       -4.4208155921    1.4107905322   -0.7833955343
H       -4.9967219647    0.1031312912    0.2283029463
C       -3.6063237029    1.4307895865    1.2584616973
H       -3.3584858248    2.4645919686    1.0489463727
H       -4.3786847424    1.4588141103    2.0195412065
H       -2.7448019957    0.9296127194    1.6796202297
8    
Iteration 3 Energy -78.76420139
C       -4.1783297368    0.7350231343    0.0174917300
H       -3.3592574345    0.0968652282   -0.2579368503
H       -4.3570358054    1.3914148434   -0.8972888506
H       -5.0728068469    0.2717748045    0.2541980718
C       -3.6353467131    1.3770524779    1.2749331198
H       -3.4362641944    2.3739220256    0.9276509664
H       -4.3460462540    1.2747777175    2.0200184898
H       -2.6395382590    1.0084515872    1.6898607252
8    
Iteration 4 Energy -78.78991121
C       -4.1331630395    0.7053108001   -0.0106244977
H       -3.3983858629    0.0053212326   -0.3893063801
H       -4.3857183703    1.4063976831   -0.7978252173
H       -5.0231566066    0.1312005606    0.2170020164
C       -3.6111966556    1.4312152045    1.2608250737
H       -3.3850869929    2.4697035927    1.0517811378
H       -4.3651147937    1.4262124495    2.0386982135
H       -2.7233325927    0.9539299531    1.6594363956
8    
Iteration 5 Energy -78.78991547
C       -4.1343413825    0.7033633636   -0.0091498813
H       -3.4009611091    0.0002688465   -0.3848723498
H       -4.3727918371    1.4051162040   -0.7987729845
H       -5.0318286178    0.1379660214    0.2119746073
C       -3.6137131608    1.4318625855    1.2616093036
H       -3.3919472939    2.4714329842    1.0531165863
H       -4.3607339616    1.4179375163    2.0463509888
H       -2.7188353654    0.9613525166    1.6497260991
8    
Iteration 6 Energy -78.78990292
C       -4.1354186125    0.7021011671   -0.0084242630
H       -3.4028049097   -0.0028514485   -0.3823315585
H       -4.3649976523    1.4037469289   -0.8007065826
H       -5.0375843950    0.1424120840    0.2084387299
C       -3.6152573087    1.4321993070    1.2624912546
H       -3.3961071120    2.4724378049    1.0542486442
H       -4.3576802696    1.4125353555    2.0515450182
H       -2.7152858799    0.9667191606    1.6447273643
8    
Iteration 7 Energy -78.78989212
C       -4.1353664072    0.7020464843   -0.0082939811
H       -3.4033341882   -0.0040241528   -0.3812756821
H       -4.3631658730    1.4038039570   -0.8008313717
H       -5.0385136446    0.1437366173    0.2081742682
C       -3.6153717915    1.4322331153    1.2623979688
H       -3.3976974485    2.4728643905    1.0544878542
H       -4.3571513191    1.4110715652    2.0520553690
H       -2.7145434110    0.9675691606    1.6432748515
8    
Iteration 8 Energy -78.78988567
C       -4.1353312617    0.7020588892   -0.0082761090
H       -3.4036573877   -0.0046707550   -0.3807156061
H       -4.3623220146    1.4037955038   -0.8010347505
H       -5.0389493878    0.1444628752    0.2080479601
C       -3.6153693792    1.4322331890    1.2623560504
H       -3.3985663388    2.4730897466    1.0546580076
H       -4.3568533812    1.4102962419    2.0522645744
H       -2.7141001616    0.9680290624    1.6426890724
8    
Iteration 9 Energy -78.78988009
C       -4.1358991878    0.7014852305   -0.0082050913
H       -3.4045469275   -0.0057002244   -0.3804173981
H       -4.3596483339    1.4028607726   -0.8020584038
H       -5.0412425556    0.1456214813    0.2060186454
C       -3.6159118803    1.4324790955    1.2629380013
H       -3.3996576148    2.4735051648    1.0554997498
H       -4.3554477518    1.4088780103    2.0548042620
H       -2.7128125845    0.9704532937    1.6412867408
8    
Iteration 10 Energy -78.78987956
C       -4.1353979637    0.7020652314   -0.0083717467
H       -3.4040960005   -0.0052859548   -0.3803211514
H       -4.3616460139    1.4035418231   -0.8016936858
H       -5.0394932335    0.1451761764    0.2076637814
C       -3.6153230001    1.4322384406    1.2624506629
H       -3.3993456586    2.4733000224    1.0549907877
H       -4.3564022758    1.4095647869    2.0526858805
H       -2.7134644259    0.9687693648    1.6425378367
8    
Iteration 11 Energy -78.78987823
C       -4.1353988994    0.7020601495   -0.0083618669
H       -3.4041675435   -0.0054283514   -0.3801899994
H       -4.3614303411    1.4035307559   -0.8017540922
H       -5.0396163665    0.1453538117    0.2076159057
C       -3.6153349002    1.4322428605    1.2624502062
H       -3.3995423012    2.4733509202    1.0550299295
H       -4.3563205346    1.4093743628    2.0527632789
H       -2.7133503559    0.9688981136    1.6423944296
8    
Iteration 12 Energy -78.78987744
C       -4.1353846023    0.7020714954   -0.0083553648
H       -3.4041966202   -0.0054995017   -0.3801131429
H       -4.3613492306    1.4035516497   -0.8017501870
H       -5.0396395421    0.1454357498    0.2076350598
C       -3.6153295432    1.4322392764    1.2624319194
H       -3.3996467185    2.4733750324    1.0550351358
H       -4.3563030554    1.4092906167    2.0527509660
H       -2.7133158005    0.9689179139    1.6423182709
