8    
Iteration 0 Energy -78.78987744
C       -4.1340013920    0.7018366653   -0.0083525701
H       -3.4030579789   -0.0054976622   -0.3799860020
H       -4.3598904393    1.4030821874   -0.8014820162
H       -5.0379538751    0.1453871042    0.2075656097
C       -3.6141202818    1.4317602186    1.2620096591
H       -3.3985095991    2.4725477338    1.0546822459
H       -4.3548459519    1.4088192348    2.0520643584
H       -2.7124082462    0.9685938286    1.6417689456
8    
Iteration 1 Energy -78.78954108
C       -4.1316948302    0.7063474564   -0.0123234917
H       -3.4169725866   -0.0265984213   -0.3665240765
H       -4.3493231061    1.4035813624   -0.8117689363
H       -5.0424258158    0.1622104849    0.2082663588
C       -3.6088417998    1.4315454551    1.2601764917
H       -3.4249427775    2.4810591836    1.0647341428
H       -4.3498632695    1.3937997535    2.0498841120
H       -2.7010924604    0.9774284911    1.6375080564
8    
Iteration 2 Energy -78.78940984
C       -4.1308823472    0.7064082581   -0.0130344818
H       -3.4262059049   -0.0415192239   -0.3560720604
H       -4.3313870067    1.4015014462   -0.8178407421
H       -5.0520132896    0.1770138736    0.2032528622
C       -3.6079577786    1.4320760626    1.2598550203
H       -3.4435837689    2.4861545320    1.0713364433
H       -4.3420179963    1.3783766638    2.0559659655
H       -2.6911033046    0.9893403603    1.6265061938
8    
Iteration 3 Energy -78.78956629
C       -4.1369072779    0.7021043966   -0.0077982095
H       -3.4331667195   -0.0524416442   -0.3369483143
H       -4.2933758755    1.3942402312   -0.8270434532
H       -5.0791414358    0.2060257290    0.1884327109
C       -3.6162817137    1.4313346255    1.2633682515
H       -3.4666657747    2.4864970238    1.0705594576
H       -4.3253598406    1.3456966862    2.0771740418
H       -2.6742802139    1.0159230812    1.6021362282
8    
Iteration 4 Energy -78.78956936
C       -4.1369313678    0.6995983973   -0.0073352057
H       -3.4390703122   -0.0615113461   -0.3346456734
H       -4.2803508820    1.3917339257   -0.8274755985
H       -5.0859132509    0.2122761777    0.1821183778
C       -3.6178440348    1.4332769065    1.2638772856
H       -3.4747875120    2.4906226159    1.0768339629
H       -4.3195316306    1.3391069053    2.0840655527
H       -2.6707413354    1.0242613534    1.5924405611
8    
Iteration 5 Energy -78.78956753
C       -4.1372985156    0.6998315309   -0.0070038206
H       -3.4407753766   -0.0639768643   -0.3306259254
H       -4.2753787196    1.3910304199   -0.8293806794
H       -5.0887702906    0.2174546216    0.1810289071
C       -3.6181285539    1.4328161505    1.2639423517
H       -3.4797995508    2.4907231092    1.0769211987
H       -4.3171635512    1.3337591825    2.0854531172
H       -2.6678523613    1.0277350113    1.5895342785
8    
Iteration 6 Energy -78.78956636
C       -4.1374923465    0.6997281623   -0.0068263530
H       -3.4420902761   -0.0658606222   -0.3285991998
H       -4.2719851223    1.3904075144   -0.8303354694
H       -5.0906893869    0.2203934125    0.1799161061
C       -3.6183856945    1.4327596435    1.2640412112
H       -3.4827783734    2.4910926466    1.0775209981
H       -4.3155136625    1.3307258037    2.0867323621
H       -2.6662280013    1.0301235697    1.5874192987
8    
Iteration 7 Energy -78.78956592
C       -4.1375003129    0.6996444566   -0.0067701875
H       -3.4429268220   -0.0670937363   -0.3276258709
H       -4.2701270729    1.3900940291   -0.8307364765
H       -5.0916476127    0.2218739192    0.1793032161
C       -3.6184731141    1.4328123898    1.2640438333
H       -3.4844330243    2.4914509807    1.0780713407
H       -4.3146358995    1.3292178104    2.0873970349
H       -2.6654247910    1.0313780413    1.5861929135
8    
Iteration 8 Energy -78.78956577
C       -4.1375544851    0.6995899066   -0.0067286955
H       -3.4434492620   -0.0678137577   -0.3269922441
H       -4.2689365237    1.3898377288   -0.8310654579
H       -5.0923179521    0.2228563933    0.1788361506
C       -3.6185544824    1.4328248475    1.2640829451
H       -3.4854684207    2.4916282092    1.0783887345
H       -4.3140223251    1.3282217677    2.0878945432
H       -2.6648815461    1.0322500345    1.5854586099
