8    
Iteration 8 Energy -78.78956577
C       -4.1375544851    0.6995899066   -0.0067286955
H       -3.4434492620   -0.0678137577   -0.3269922441
H       -4.2689365237    1.3898377288   -0.8310654579
H       -5.0923179521    0.2228563933    0.1788361506
C       -3.6185544824    1.4328248475    1.2640829451
H       -3.4854684207    2.4916282092    1.0783887345
H       -4.3140223251    1.3282217677    2.0878945432
H       -2.6648815461    1.0322500345    1.5854586099
