10   
Scan Cycle 1/88 ; Dihedral 3-1-2-10 = 0.00, Angle 1-3-2 = 100.00 ; Iteration 56 Energy -134.51119673
C       -0.3953341909   -0.0668953065   -1.0756609506
C        0.8551762425    0.2118719433    0.7366938970
N       -0.5393315449    0.1803918488    0.3441062410
H        0.1340390202   -1.0225732935   -1.2703939060
H        0.1782139834    0.7422896085   -1.5734509703
H       -1.3758360273   -0.1300261719   -1.5860953641
H        1.3637981144   -0.7484653789    0.5115543787
H        0.9740722841    0.3945407581    1.8222175454
H        1.4090662095    1.0162697279    0.2096021247
H       -1.3580640909    0.2978962642    0.9055270043
10   
Scan Cycle 2/88 ; Dihedral 3-1-2-10 = 0.00, Angle 1-3-2 = 105.00 ; Iteration 9 Energy -134.51971891
C       -0.4151596818   -0.0703043071   -1.0985002504
C        0.8719880423    0.2162299551    0.7643089926
N       -0.4943519672    0.1743263893    0.3167234820
H        0.0997648303   -1.0297664254   -1.3206527218
H        0.1446465488    0.7337981995   -1.6230088630
H       -1.4193288296   -0.1236306490   -1.5585857249
H        1.3997344222   -0.7403902003    0.5607676538
H        0.9377085590    0.4011222570    1.8525982922
H        1.4447014457    1.0231763043    0.2584346122
H       -1.3239033699    0.2907384767    0.8720145274
10   
Scan Cycle 3/88 ; Dihedral 3-1-2-10 = 0.00, Angle 1-3-2 = 110.00 ; Iteration 9 Energy -134.52518032
C       -0.4345063436   -0.0742933600   -1.1246292454
C        0.8895682735    0.2204702578    0.7916196810
N       -0.4509349196    0.1682431320    0.2876591988
H        0.0620037554   -1.0377555138   -1.3743129815
H        0.1069101235    0.7252985052   -1.6765786106
H       -1.4607761327   -0.1178561849   -1.5311867584
H        1.4365373584   -0.7317610860    0.6149727715
H        0.8965848712    0.4069453974    1.8804695592
H        1.4814822874    1.0312980228    0.3127429197
H       -1.2810692736    0.2847108296    0.8433434660
10   
Scan Cycle 4/88 ; Dihedral 3-1-2-10 = 0.00, Angle 1-3-2 = 115.00 ; Iteration 8 Energy -134.52818009
C       -0.4526006052   -0.0783184538   -1.1507992909
C        0.9076468011    0.2244992863    0.8177998996
N       -0.4066359625    0.1620348430    0.2580049631
H        0.0217890420   -1.0458389639   -1.4286010696
H        0.0666918975    0.7168238653   -1.7308005525
H       -1.4988506334   -0.1117192199   -1.5010750784
H        1.4730294289   -0.7227649343    0.6716893086
H        0.8541396754    0.4121051139    1.9042569343
H        1.5179637492    1.0399040398    0.3695299538
H       -1.2373733930    0.2785744236    0.8140949320
10   
Scan Cycle 5/88 ; Dihedral 3-1-2-10 = 0.00, Angle 1-3-2 = 120.00 ; Iteration 7 Energy -134.52911823
C       -0.4696214697   -0.0822941775   -1.1765231568
C        0.9256982522    0.2283316113    0.8428338356
N       -0.3615103108    0.1557084789    0.2277974909
H       -0.0199894199   -1.0536459306   -1.4818506516
H        0.0249020754    0.7085162169   -1.7839643989
H       -1.5329664982   -0.1053531254   -1.4690223247
H        1.5079558530   -0.7134952119    0.7294477808
H        0.8113158432    0.4165315325    1.9237072662
H        1.5528768726    1.0486733547    0.4273750609
H       -1.1928611977    0.2723272511    0.7842990976
10   
Scan Cycle 6/88 ; Dihedral 3-1-2-10 = 0.00, Angle 1-3-2 = 125.00 ; Iteration 8 Energy -134.52826543
C       -0.4857463363   -0.0861472458   -1.2013968766
C        0.9432755666    0.2319815290    0.8667351217
N       -0.3156241226    0.1492743471    0.1970811590
H       -0.0625608199   -1.0609324263   -1.5328434930
H       -0.0176870257    0.7005100641   -1.8348328250
H       -1.5628928628   -0.0988783727   -1.4357106436
H        1.5404419488   -0.7040721802    0.7870803376
H        0.7688420076    0.4202125892    1.9388599900
H        1.5853436418    1.0573765146    0.4851306987
H       -1.1475919976    0.2659751810    0.7539965313
10   
Scan Cycle 7/88 ; Dihedral 3-1-2-10 = 0.00, Angle 1-3-2 = 130.00 ; Iteration 8 Energy -134.52580072
C       -0.5010946591   -0.0898138365   -1.2250672515
C        0.9600012493    0.2354552600    0.8894833942
N       -0.2691387228    0.1427551824    0.1659637816
H       -0.1052486263   -1.0675543623   -1.5807113617
H       -0.0603989069    0.6929245696   -1.8825337555
H       -1.5886131383   -0.0924014524   -1.4017591307
H        1.5699147175   -0.6946296251    0.8436454864
H        0.7273094020    0.4231692605    1.9499272521
H        1.6147903401    1.0658550841    0.5418603890
H       -1.1017216553    0.2595399197    0.7232911962
10   
Scan Cycle 8/88 ; Dihedral 3-1-2-10 = 0.00, Angle 1-3-2 = 135.00 ; Iteration 9 Energy -134.52184498
C       -0.5157700309   -0.0932518071   -1.2473029557
C        0.9756187335    0.2387611897    0.9110884740
N       -0.2221442934    0.1361642855    0.1345057750
H       -0.1475997072   -1.0734594058   -1.6250087013
H       -0.1027802405    0.6858361674   -1.9266262631
H       -1.6103302245   -0.0859922572   -1.3676043337
H        1.5961210646   -0.6852723417    0.8985670647
H        0.6870557978    0.4254519259    1.9572555208
H        1.6409650353    1.0740285953    0.5969844770
H       -1.0553361347    0.2530336479    0.6922409422
10   
Scan Cycle 9/88 ; Dihedral 3-1-2-10 = 0.00, Angle 1-3-2 = 140.00 ; Iteration 9 Energy -134.51648952
C       -0.5298297496   -0.0964293431   -1.2679278715
C        0.9899403338    0.2419017683    0.9315381429
N       -0.1747379296    0.1295156675    0.1027719969
H       -0.1892696426   -1.0786410232   -1.6655055502
H       -0.1444858024    0.6792978653   -1.9668892322
H       -1.6283299871   -0.0797002146   -1.3335749697
H        1.6189743555   -0.6760898516    0.9514504240
H        0.6482870184    0.4271202161    1.9612270104
H        1.6637818202    1.0818544837    0.6501008790
H       -1.0085304166    0.2464704316    0.6609091704
10   
Scan Cycle 10/88 ; Dihedral 3-1-2-10 = 0.00, Angle 1-3-2 = 145.00 ; Iteration 9 Energy -134.50981261
C       -0.5433031768   -0.0993248104   -1.2868184537
C        1.0028387241    0.2448772647    0.9508136707
N       -0.1269801352    0.1228182392    0.0708028325
H       -0.2300202630   -1.0831218963   -1.7021339103
H       -0.1852771409    0.6733418453   -2.0032640827
H       -1.6429474624   -0.0735545747   -1.2998870664
H        1.6385014839   -0.6671516659    1.0020580339
H        0.6110839650    0.4282379047    1.9622284913
H        1.6832697756    1.0893176932    0.7009640947
H       -0.9613657701    0.2398600002    0.6293363899
10   
Scan Cycle 11/88 ; Dihedral 3-1-2-10 = 0.00, Angle 1-3-2 = 150.00 ; Iteration 4 Energy -134.50189345
C       -0.5562691707   -0.1018873033   -1.3036919595
C        1.0142370441    0.2476420655    0.9686374580
N       -0.0788611106    0.1160792696    0.0386515692
H       -0.2698132132   -1.0869116071   -1.7347580279
H       -0.2251099841    0.6680211079   -2.0356232086
H       -1.6546105226   -0.0675181847   -1.2664055520
H        1.6548798127   -0.6585502375    1.0500510068
H        0.5756300489    0.4288427227    1.9604892734
H        1.6996065295    1.0963832395    0.7492200095
H       -0.9138894341    0.2331989275    0.5975294312
10   
Scan Cycle 12/88 ; Dihedral 3-1-2-10 = 10.00, Angle 1-3-2 = 100.00 ; Iteration 81 Energy -134.51542883
C       -0.4119510219   -0.0490136344   -1.0684408551
C        0.8683584608    0.2262415725    0.7257228478
N       -0.5286529997    0.2702929367    0.3411350365
H        0.0697991520   -1.0352252511   -1.2537253391
H        0.1935258411    0.7214224612   -1.5801864067
H       -1.3995446098   -0.0678165856   -1.5683515106
H        1.3434654246   -0.7613266306    0.5307376181
H        1.0056565208    0.4490191956    1.8014297362
H        1.4375420357    0.9891638442    0.1635841031
H       -1.3323988035    0.1325420915    0.9321947698
10   
Scan Cycle 13/88 ; Dihedral 3-1-2-10 = 10.00, Angle 1-3-2 = 105.00 ; Iteration 19 Energy -134.52317650
C       -0.4335250575   -0.0526569118   -1.0943475241
C        0.8852177328    0.2309348990    0.7541982635
N       -0.4879623892    0.2534144012    0.3139554206
H        0.0250630785   -1.0453016480   -1.3098876344
H        0.1673144944    0.7111098531   -1.6242698757
H       -1.4419789221   -0.0479103331   -1.5477233374
H        1.3816928776   -0.7535409447    0.5916482210
H        0.9680092537    0.4702525224    1.8304993896
H        1.4712486853    0.9915859715    0.2036122902
H       -1.2892797536    0.1174121904    0.9064147867
10   
Scan Cycle 14/88 ; Dihedral 3-1-2-10 = 10.00, Angle 1-3-2 = 110.00 ; Iteration 18 Energy -134.52801512
C       -0.4534165075   -0.0561804546   -1.1198257189
C        0.9027514321    0.2354365927    0.7812000236
N       -0.4460345947    0.2332351894    0.2871272387
H       -0.0277043046   -1.0561639983   -1.3707578536
H        0.1427581393    0.7001231206   -1.6673913187
H       -1.4809274369   -0.0207452117   -1.5239132942
H        1.4221502245   -0.7444043566    0.6616159056
H        0.9288707640    0.4974463658    1.8540405193
H        1.5047459974    0.9929790072    0.2417718867
H       -1.2473937137    0.0935737453    0.8802326117
10   
Scan Cycle 15/88 ; Dihedral 3-1-2-10 = 10.00, Angle 1-3-2 = 115.00 ; Iteration 16 Energy -134.53050044
C       -0.4723460883   -0.0594336714   -1.1452620906
C        0.9205428517    0.2400812611    0.8072338187
N       -0.4036705520    0.2088049145    0.2606543676
H       -0.0894155717   -1.0668062311   -1.4349472325
H        0.1215573261    0.6883645678   -1.7077634524
H       -1.5155337248    0.0149268843   -1.4987251576
H        1.4627178817   -0.7330488310    0.7407721243
H        0.8887006215    0.5319135519    1.8714360606
H        1.5368880900    0.9927063548    0.2761920792
H       -1.2036408342    0.0577911990    0.8545094827
10   
Scan Cycle 16/88 ; Dihedral 3-1-2-10 = 10.00, Angle 1-3-2 = 120.00 ; Iteration 15 Energy -134.53102636
C       -0.4905648849   -0.0620864165   -1.1700481976
C        0.9378803963    0.2450749084    0.8322897572
N       -0.3606797975    0.1814060980    0.2341890896
H       -0.1574347878   -1.0755692905   -1.4984735657
H        0.1030081389    0.6759878585   -1.7459190811
H       -1.5451930043    0.0563432265   -1.4722146383
H        1.5002733663   -0.7191100361    0.8252369374
H        0.8481431357    0.5709865924    1.8826701904
H        1.5679512211    0.9909968284    0.3075803907
H       -1.1575837838    0.0112702309    0.8287891175
10   
Scan Cycle 17/88 ; Dihedral 3-1-2-10 = 10.00, Angle 1-3-2 = 125.00 ; Iteration 13 Energy -134.52984911
C       -0.5081380927   -0.0640563991   -1.1937075816
C        0.9542878451    0.2504115704    0.8562645038
N       -0.3167230418    0.1545997507    0.2069423389
H       -0.2263470691   -1.0816249347   -1.5561785508
H        0.0836926094    0.6634821655   -1.7845684776
H       -1.5702725735    0.0971042349   -1.4440560078
H        1.5317218672   -0.7035844786    0.9082140529
H        0.8076830524    0.6084402479    1.8892697150
H        1.5992348692    0.9893724741    0.3398591621
H       -1.1093394660   -0.0388446312    0.8020608450
10   
Scan Cycle 18/88 ; Dihedral 3-1-2-10 = 10.00, Angle 1-3-2 = 130.00 ; Iteration 11 Energy -134.52713306
C       -0.5250029336   -0.0653987270   -1.2159730597
C        0.9695465262    0.2559772582    0.8790281431
N       -0.2716939315    0.1312225213    0.1784050107
H       -0.2919622622   -1.0854576395   -1.6050307472
H        0.0609851751    0.6513464299   -1.8253913155
H       -1.5915607401    0.1327664761   -1.4144409628
H        1.5557185381   -0.6881476349    0.9849763469
H        0.7678686699    0.6401188282    1.8929145279
H        1.6313504944    0.9890248253    0.3758855768
H       -1.0594495363   -0.0861523375    0.7737264799
10   
Scan Cycle 19/88 ; Dihedral 3-1-2-10 = 10.00, Angle 1-3-2 = 135.00 ; Iteration 10 Energy -134.52300020
C       -0.5411645224   -0.0660176717   -1.2366866854
C        0.9834931982    0.2618321438    0.9005186590
N       -0.2257463952    0.1115703880    0.1486410066
H       -0.3536594663   -1.0878191597   -1.6449222969
H        0.0350569853    0.6396698671   -1.8676805433
H       -1.6095011167    0.1636761440   -1.3840917161
H        1.5724787465   -0.6736383561    1.0550626281
H        0.7291730403    0.6665653579    1.8941699094
H        1.6636845757    0.9898766174    0.4152657336
H       -1.0080150454   -0.1304153306    0.7438233050
10   
Scan Cycle 20/88 ; Dihedral 3-1-2-10 = 10.00, Angle 1-3-2 = 140.00 ; Iteration 9 Energy -134.51756052
C       -0.5567992263   -0.0654895311   -1.2556225610
C        0.9957975467    0.2683681493    0.9207466467
N       -0.1790837151    0.0943568173    0.1179929906
H       -0.4131709790   -1.0888725237   -1.6767812016
H        0.0078182512    0.6281908334   -1.9096381268
H       -1.6241445521    0.1931324894   -1.3538708555
H        1.5823066612   -0.6597815455    1.1204010596
H        0.6919117907    0.6911582321    1.8926861100
H        1.6952413510    0.9910404316    0.4557253054
H       -0.9540771282   -0.1768033528    0.7124606327
10   
Scan Cycle 21/88 ; Dihedral 3-1-2-10 = 10.00, Angle 1-3-2 = 145.00 ; Iteration 9 Energy -134.51092842
C       -0.5722075206   -0.0631018712   -1.2724479910
C        1.0059474958    0.2762515387    0.9397477693
N       -0.1318049750    0.0785785680    0.0866852466
H       -0.4724484020   -1.0882982682   -1.7006592951
H       -0.0189913864    0.6165174975   -1.9500673810
H       -1.6355918690    0.2245572717   -1.3245400935
H        1.5845503785   -0.6459781984    1.1827609307
H        0.6562714667    0.7173806847    1.8881038912
H        1.7255469351    0.9916486571    0.4953579647
H       -0.8954721230   -0.2322558798    0.6791589582
10   
Scan Cycle 22/88 ; Dihedral 3-1-2-10 = 10.00, Angle 1-3-2 = 150.00 ; Iteration 9 Energy -134.50323572
C       -0.5878346489   -0.0580660142   -1.2868491769
C        1.0133964179    0.2861600139    0.9574988445
N       -0.0840411005    0.0648729354    0.0544841248
H       -0.5312777183   -1.0855963557   -1.7154673051
H       -0.0460410308    0.6050847531   -1.9890182207
H       -1.6448479954    0.2585166906   -1.2964728411
H        1.5766879800   -0.6325462677    1.2426916688
H        0.6226106842    0.7478467745    1.8804002229
H        1.7555451400    0.9904038129    0.5337112549
H       -0.8283977282   -0.3013763428    0.6431214280
10   
Scan Cycle 23/88 ; Dihedral 3-1-2-10 = 20.00, Angle 1-3-2 = 100.00 ; Iteration 140 Energy -134.52423547
C       -0.4343626428   -0.0274746222   -1.0720510951
C        0.8704577755    0.2548601586    0.7224031794
N       -0.5406299618    0.3072450878    0.3423500642
H        0.0834591960   -0.9931278335   -1.2690675603
H        0.1303660873    0.7708051165   -1.5813972062
H       -1.4301729695   -0.0783942934   -1.5518009626
H        1.3590202940   -0.7193014200    0.4956125343
H        1.0019007059    0.4520690582    1.8031437663
H        1.4189769230    1.0430132551    0.1798942206
H       -1.2132154077   -0.1343945072    0.9550130594
10   
Scan Cycle 24/88 ; Dihedral 3-1-2-10 = 20.00, Angle 1-3-2 = 105.00 ; Iteration 18 Energy -134.53052388
C       -0.4555907831   -0.0305430673   -1.0926575442
C        0.8913002020    0.2608163880    0.7522210318
N       -0.4951082174    0.2837745406    0.3234662747
H        0.0279603228   -1.0079728999   -1.3244245626
H        0.1128000454    0.7561116907   -1.6186598764
H       -1.4731904093   -0.0458522549   -1.5236878984
H        1.4057140094   -0.7100319812    0.5632338973
H        0.9759204838    0.4841847275    1.8313240005
H        1.4476492543    1.0445823860    0.2092835333
H       -1.1916549078   -0.1597695295    0.9040011440
10   
Scan Cycle 25/88 ; Dihedral 3-1-2-10 = 20.00, Angle 1-3-2 = 110.00 ; Iteration 14 Energy -134.53389236
C       -0.4753348338   -0.0346057608   -1.1171372091
C        0.9088590718    0.2648438610    0.7786139689
N       -0.4524822673    0.2633708250    0.2959675594
H       -0.0234196633   -1.0195149886   -1.3833086129
H        0.0878295812    0.7448803437   -1.6613385738
H       -1.5115305628   -0.0221588935   -1.4988032253
H        1.4467852576   -0.7014627053    0.6302660760
H        0.9376390458    0.5076968420    1.8555164982
H        1.4812940406    1.0463208688    0.2470874812
H       -1.1538396698   -0.1740703923    0.8772360374
10   
Scan Cycle 26/88 ; Dihedral 3-1-2-10 = 20.00, Angle 1-3-2 = 115.00 ; Iteration 14 Energy -134.53507190
C       -0.4941771562   -0.0385766855   -1.1416839907
C        0.9265152082    0.2687707662    0.8040453537
N       -0.4096406830    0.2406963379    0.2682816494
H       -0.0807271887   -1.0306336602   -1.4437733785
H        0.0636109960    0.7335194010   -1.7031583535
H       -1.5462084001    0.0058945907   -1.4723276157
H        1.4870296755   -0.6914708442    0.7033708356
H        0.8977476178    0.5346113078    1.8748272906
H        1.5145207294    1.0474035786    0.2839553037
H       -1.1128707991   -0.1949147924    0.8505629053
10   
Scan Cycle 27/88 ; Dihedral 3-1-2-10 = 20.00, Angle 1-3-2 = 120.00 ; Iteration 13 Energy -134.53443649
C       -0.5121563189   -0.0423175277   -1.1656498471
C        0.9438561329    0.2726708896    0.8284526236
N       -0.3661279855    0.2175415240    0.2401684418
H       -0.1407628539   -1.0403296142   -1.5018407997
H        0.0389171397    0.7221753422   -1.7448619033
H       -1.5768377940    0.0349370288   -1.4440287080
H        1.5239389153   -0.6801942365    0.7780748569
H        0.8572568898    0.5615201266    1.8896199739
H        1.5474918069    1.0485350118    0.3212278247
H       -1.0697759323   -0.2192385447    0.8229375371
10   
Scan Cycle 28/88 ; Dihedral 3-1-2-10 = 20.00, Angle 1-3-2 = 125.00 ; Iteration 12 Energy -134.53223816
C       -0.5292378606   -0.0457798459   -1.1886545009
C        0.9605380793    0.2765128210    0.8516889780
N       -0.3217249836    0.1960735122    0.2111382692
H       -0.1998879860   -1.0482754936   -1.5543465505
H        0.0119861647    0.7111202930   -1.7874654509
H       -1.6034547142    0.0612997374   -1.4140116128
H        1.5556631537   -0.6684858511    0.8499931715
H        0.8168185797    0.5848928429    1.9007077206
H        1.5805581095    1.0504594239    0.3607942334
H       -1.0254585426   -0.2425174398    0.7942557425
10   
Scan Cycle 29/88 ; Dihedral 3-1-2-10 = 20.00, Angle 1-3-2 = 130.00 ; Iteration 12 Energy -134.52864752
C       -0.5454078711   -0.0489116204   -1.2104474798
C        0.9763230940    0.2802940513    0.8736604915
N       -0.2764396628    0.1772791624    0.1810413846
H       -0.2562144766   -1.0547703936   -1.6000229720
H       -0.0177466757    0.7004879533   -1.8308684926
H       -1.6262765086    0.0836674036   -1.3827289173
H        1.5816554238   -0.6571723731    0.9170575102
H        0.7769835896    0.6035799229    1.9086896364
H        1.6134262808    1.0533699855    0.4031274883
H       -0.9805031934   -0.2625240919    0.7645913507
10   
Scan Cycle 30/88 ; Dihedral 3-1-2-10 = 20.00, Angle 1-3-2 = 135.00 ; Iteration 9 Energy -134.52378784
C       -0.5609036220   -0.0515550633   -1.2311940971
C        0.9907806950    0.2840269729    0.8942819872
N       -0.2308532400    0.1607045935    0.1495740472
H       -0.3092299843   -1.0598437229   -1.6397580307
H       -0.0500012145    0.6908959894   -1.8738717174
H       -1.6457509937    0.1024108912   -1.3513142814
H        1.6013551670   -0.6469412361    0.9799334844
H        0.7376718546    0.6192696033    1.9133704740
H        1.6457168260    1.0562510537    0.4469926467
H       -0.9329854881   -0.2799190818    0.7360854871
10   
Scan Cycle 31/88 ; Dihedral 3-1-2-10 = 20.00, Angle 1-3-2 = 140.00 ; Iteration 9 Energy -134.51776929
C       -0.5756454159   -0.0534468898   -1.2498889684
C        1.0039849881    0.2881665863    0.9137253382
N       -0.1844093652    0.1455629500    0.1180172128
H       -0.3608948483   -1.0641582902   -1.6727110107
H       -0.0825048996    0.6811745105   -1.9152175604
H       -1.6617028104    0.1207729627   -1.3193745352
H        1.6162160103   -0.6369588852    1.0388460087
H        0.7001936449    0.6334900735    1.9152885637
H        1.6759871804    1.0596034490    0.4908036335
H       -0.8854244843   -0.2989064668    0.7046113181
10   
Scan Cycle 32/88 ; Dihedral 3-1-2-10 = 20.00, Angle 1-3-2 = 145.00 ; Iteration 9 Energy -134.51069070
C       -0.5899370923   -0.0541848876   -1.2666045734
C        1.0153598454    0.2929879622    0.9319642432
N       -0.1376555738    0.1311860316    0.0861744653
H       -0.4118100597   -1.0674102738   -1.6994048218
H       -0.1142930839    0.6716040154   -1.9540677144
H       -1.6745571342    0.1403219797   -1.2880231625
H        1.6253809990   -0.6272594975    1.0949756926
H        0.6641795332    0.6484862275    1.9142864119
H        1.7041224970    1.0625788621    0.5332318100
H       -0.8349899308   -0.3230104196    0.6715676491
10   
Scan Cycle 33/88 ; Dihedral 3-1-2-10 = 20.00, Angle 1-3-2 = 150.00 ; Iteration 9 Energy -134.50266150
C       -0.6039997900   -0.0532781278   -1.2810504344
C        1.0244659713    0.2989379766    0.9490070469
N       -0.0907504592    0.1177036445    0.0541090782
H       -0.4624909290   -1.0694575099   -1.7190604825
H       -0.1447121962    0.6619759013   -1.9903081471
H       -1.6847942161    0.1624573675   -1.2577664219
H        1.6279432756   -0.6177786005    1.1485219686
H        0.6296739744    0.6657218438    1.9106674592
H        1.7302197803    1.0648883857    0.5737137303
H       -0.7797554110   -0.3558708813    0.6362662028
10   
Scan Cycle 34/88 ; Dihedral 3-1-2-10 = 30.00, Angle 1-3-2 = 100.00 ; Iteration 45 Energy -134.52964074
C       -0.4569838274   -0.0087484761   -1.0732868497
C        0.8672884245    0.2783806777    0.7314335833
N       -0.5556239385    0.3679312879    0.3421967834
H        0.0562708732   -0.9791779907   -1.2486968527
H        0.1046188375    0.7768317273   -1.6036681148
H       -1.4593363890   -0.0646792035   -1.5370267172
H        1.3269766647   -0.7094114039    0.5120628015
H        0.9881203350    0.4808052145    1.8116725057
H        1.4379267616    1.0493407046    0.1884590380
H       -1.0634577417   -0.3159725378    0.9009538225
10   
Scan Cycle 35/88 ; Dihedral 3-1-2-10 = 30.00, Angle 1-3-2 = 105.00 ; Iteration 17 Energy -134.53492445
C       -0.4749827325   -0.0146564245   -1.0912311569
C        0.8895142897    0.2839960581    0.7592124526
N       -0.5030117093    0.3538319008    0.3224848628
H        0.0140605360   -0.9946970223   -1.2911482583
H        0.0783810368    0.7582367213   -1.6511657990
H       -1.5000920202   -0.0505272862   -1.5011921689
H        1.3763800022   -0.6964096392    0.5557788373
H        0.9653273782    0.4888166071    1.8420373474
H        1.4680465743    1.0627370718    0.2339144079
H       -1.0678233554   -0.3160279870    0.8454094751
10   
Scan Cycle 36/88 ; Dihedral 3-1-2-10 = 30.00, Angle 1-3-2 = 110.00 ; Iteration 9 Energy -134.53714429
C       -0.4936268364   -0.0197905467   -1.1161501700
C        0.9077298559    0.2868863134    0.7845050011
N       -0.4591062374    0.3360429563    0.2926627739
H       -0.0274536072   -1.0055205660   -1.3472418588
H        0.0461877245    0.7483428166   -1.6972519332
H       -1.5370191864   -0.0372823843   -1.4757384680
H        1.4175178676   -0.6893029142    0.6125888713
H        0.9275171551    0.5020790753    1.8668994572
H        1.5031218420    1.0671705796    0.2787652973
H       -1.0390685778   -0.3133253300    0.8250610292
10   
Scan Cycle 37/88 ; Dihedral 3-1-2-10 = 30.00, Angle 1-3-2 = 115.00 ; Iteration 9 Energy -134.53725758
C       -0.5113383832   -0.0249682605   -1.1408291071
C        0.9262578099    0.2896422036    0.8089744623
N       -0.4149406228    0.3162355993    0.2632974440
H       -0.0744187308   -1.0167134957   -1.4048832313
H        0.0143534849    0.7383386161   -1.7421463519
H       -1.5706901788   -0.0203057832   -1.4483671270
H        1.4589401100   -0.6811456967    0.6748025732
H        0.8888840293    0.5179591618    1.8875393956
H        1.5370257823    1.0715676367    0.3230454694
H       -1.0082733008   -0.3153099813    0.8026664729
10   
Scan Cycle 38/88 ; Dihedral 3-1-2-10 = 30.00, Angle 1-3-2 = 120.00 ; Iteration 9 Energy -134.53564303
C       -0.5281985436   -0.0300122829   -1.1649099262
C        0.9444631988    0.2922721425    0.8324529883
N       -0.3704884046    0.2950007714    0.2339490791
H       -0.1249348837   -1.0272919051   -1.4617123342
H       -0.0171077447    0.7285859450   -1.7853651586
H       -1.6005722391   -0.0011166706   -1.4196806044
H        1.4984057401   -0.6720321449    0.7400155560
H        0.8498417803    0.5351436590    1.9038018536
H        1.5694366257    1.0757930391    0.3664559498
H       -0.9750455293   -0.3210425534    0.7790925966
10   
Scan Cycle 39/88 ; Dihedral 3-1-2-10 = 30.00, Angle 1-3-2 = 125.00 ; Iteration 9 Energy -134.53257024
C       -0.5442258525   -0.0347955142   -1.1879842264
C        0.9619397039    0.2948211033    0.8548194278
N       -0.3255614046    0.2734096551    0.2043080560
H       -0.1768490110   -1.0366839379   -1.5153677792
H       -0.0486459101    0.7191686808   -1.8270536074
H       -1.6264855863    0.0184249224   -1.3898713776
H        1.5342807784   -0.6622119962    0.8054276667
H        0.8109110728    0.5518365339    1.9159557399
H        1.6003354212    1.0800397170    0.4094503014
H       -0.9398992119   -0.3287091643    0.7544157988
10   
Scan Cycle 40/88 ; Dihedral 3-1-2-10 = 30.00, Angle 1-3-2 = 130.00 ; Iteration 10 Energy -134.52822765
C       -0.5594313644   -0.0392168301   -1.2097537622
C        0.9783878305    0.2973268601    0.8759817375
N       -0.2800625717    0.2523498595    0.1741596625
H       -0.2284411940   -1.0447161999   -1.5642817083
H       -0.0806441071    0.7101224275   -1.8673052899
H       -1.6484962520    0.0370176605   -1.3591856568
H        1.5655940570   -0.6521009243    0.8689580158
H        0.7725002358    0.5668401672    1.9243981254
H        1.6296864617    1.0844194601    0.4524063843
H       -0.9032930957   -0.3367424806    0.7287224917
10   
Scan Cycle 41/88 ; Dihedral 3-1-2-10 = 30.00, Angle 1-3-2 = 135.00 ; Iteration 10 Energy -134.52275445
C       -0.5738819164   -0.0431316026   -1.2299784652
C        0.9935399751    0.2998905364    0.8959072013
N       -0.2340837100    0.2319470790    0.1435514086
H       -0.2790899307   -1.0514474168   -1.6078365773
H       -0.1127973614    0.7014694553   -1.9057143311
H       -1.6668102906    0.0547049329   -1.3280768634
H        1.5919652774   -0.6419767206    0.9298650377
H        0.7349652737    0.5803210846    1.9294378076
H        1.6571994628    1.0888241539    0.4949221932
H       -0.8652067799   -0.3453015021    0.7020225886
10   
Scan Cycle 42/88 ; Dihedral 3-1-2-10 = 30.00, Angle 1-3-2 = 140.00 ; Iteration 10 Energy -134.51626243
C       -0.5876870253   -0.0463357567   -1.2484374198
C        1.0071241157    0.3026803341    0.9145958823
N       -0.1877899444    0.2120408005    0.1126308302
H       -0.3287810284   -1.0569463750   -1.6457745721
H       -0.1445104965    0.6932043714   -1.9418078692
H       -1.6817389484    0.0721912486   -1.2970290304
H        1.6131676500   -0.6319610210    0.9880793248
H        0.6985585888    0.5931069913    1.9313549775
H        1.6826135917    1.0930610849    0.5363100815
H       -0.8251565033   -0.3557416781    0.6741777951
10   
Scan Cycle 43/88 ; Dihedral 3-1-2-10 = 30.00, Angle 1-3-2 = 145.00 ; Iteration 11 Energy -134.50885451
C       -0.6009615623   -0.0485882388   -1.2649323568
C        1.0188818768    0.3059062006    0.9320522124
N       -0.1413324710    0.1926305661    0.0815095945
H       -0.3775616619   -1.0612459340   -1.6777649606
H       -0.1753115608    0.6852757167   -1.9753669559
H       -1.6936788715    0.0901972107   -1.2664401517
H        1.6288803183   -0.6221466066    1.0435608089
H        0.6634229596    0.6060367676    1.9304835428
H        1.7058759167    1.0969638680    0.5760770465
H       -0.7824149441   -0.3697295502    0.6449212199
10   
Scan Cycle 44/88 ; Dihedral 3-1-2-10 = 30.00, Angle 1-3-2 = 150.00 ; Iteration 12 Energy -134.50063518
C       -0.6141028208   -0.0496099788   -1.2798401060
C        1.0284114048    0.3097116559    0.9483451423
N       -0.0954731257    0.1738948650    0.0495299163
H       -0.4243585193   -1.0637589179   -1.7047415770
H       -0.2061057143    0.6788136081   -2.0062064415
H       -1.7036092058    0.1078094104   -1.2370761168
H        1.6370777520   -0.6134527096    1.0971992883
H        0.6291122262    0.6211383845    1.9266866122
H        1.7281698642    1.0991076959    0.6137743541
H       -0.7333218612   -0.3883540136    0.6164289280
10   
Scan Cycle 45/88 ; Dihedral 3-1-2-10 = 40.00, Angle 1-3-2 = 100.00 ; Iteration 40 Energy -134.52375911
C       -0.4782231197    0.0045050471   -1.0722857901
C        0.8619417145    0.2963341708    0.7474328982
N       -0.5658358840    0.4527149435    0.3360792123
H        0.0263417766   -0.9754328610   -1.1985293295
H        0.0797594203    0.7547836155   -1.6576848780
H       -1.4895466430   -0.0684495195   -1.5119822657
H        1.2755731816   -0.7073726108    0.5204266750
H        0.9612394934    0.4776295740    1.8328090447
H        1.4831867910    1.0477444497    0.2305022749
H       -0.9086367308   -0.4071568093    0.7973321580
10   
Scan Cycle 46/88 ; Dihedral 3-1-2-10 = 40.00, Angle 1-3-2 = 105.00 ; Iteration 19 Energy -134.52972407
C       -0.4906377355   -0.0013539835   -1.0888096893
C        0.8819543099    0.3012401255    0.7698994875
N       -0.5056200904    0.4416200531    0.3121840982
H       -0.0005637810   -0.9878287230   -1.2376490912
H        0.0482100173    0.7384423291   -1.7067876493
H       -1.5237365828   -0.0628607834   -1.4734763068
H        1.3238751454   -0.6953060355    0.5527384929
H        0.9380961407    0.4782233990    1.8583148113
H        1.5126402655    1.0630690053    0.2787124393
H       -0.9384176890   -0.3999453866    0.7589734073
10   
Scan Cycle 47/88 ; Dihedral 3-1-2-10 = 40.00, Angle 1-3-2 = 110.00 ; Iteration 7 Energy -134.53231561
C       -0.5080296232   -0.0075226954   -1.1158668471