10   
Iteration 0 Energy -379.41178420
H        2.1156000000    0.5341360000   -1.1272400000
H        0.5258190000    0.8025890000    1.5985600000
H       -0.8993780000   -1.5512400000   -0.7075200000
O       -1.4149900000   -0.9598420000    1.1975300000
C        0.7193690000   -0.0970006000   -0.0090413000
O        1.1134400000    0.8542090000    0.8128530000
H       -1.6919800000    1.0561900000   -0.0343326000
O        1.4547400000   -0.1920630000   -1.0782500000
C       -0.9327710000   -0.7709280000    0.0709435000
O       -1.2410200000    0.4980310000   -0.6955090000
10   
Iteration 1 Energy -379.41236081
H        2.1231118777    0.5365493702   -1.1260806779
H        0.5298739971    0.7983178866    1.6001486644
H       -0.9015145617   -1.5502047576   -0.7081752668
O       -1.4188988585   -0.9456263628    1.1927607706
C        0.7283895726   -0.1029114720   -0.0080464851
O        1.1169263958    0.8499090649    0.8148795584
H       -1.6998215283    1.0504228981   -0.0302529258
O        1.4633243652   -0.1909921706   -1.0782393854
C       -0.9405469941   -0.7656736279    0.0658885027
O       -1.2520152658    0.4942905709   -0.6948891550
10   
Iteration 2 Energy -379.41317155
H        2.1342811899    0.5405557754   -1.1242569548
H        0.5332885281    0.7899828901    1.6019475136
H       -0.9047526329   -1.5486626327   -0.7084388970
O       -1.4233149021   -0.9253220666    1.1883207245
C        0.7417985868   -0.1105863464   -0.0072094362
O        1.1215293753    0.8429678380    0.8183351227
H       -1.7107594506    1.0427240237   -0.0258906986
O        1.4761392259   -0.1887798926   -1.0782228948
C       -0.9515879274   -0.7576767238    0.0587141874
O       -1.2677929931    0.4888785346   -0.6953050669
10   
Iteration 3 Energy -379.41436537
H        2.1509489747    0.5480609458   -1.1206504983
H        0.5321242476    0.7729206295    1.6032595697
H       -0.9098756033   -1.5469033114   -0.7063872459
O       -1.4254873002   -0.8961477199    1.1861829896
C        0.7605096695   -0.1201839548   -0.0076938329
O        1.1263297051    0.8310888919    0.8245714658
H       -1.7251451803    1.0337683778   -0.0235399531
O        1.4953875140   -0.1838953856   -1.0784178276
C       -0.9662267749   -0.7457432356    0.0493836031
O       -1.2897362526    0.4811161618   -0.6987146704
10   
Iteration 4 Energy -379.41611936
H        2.1743165870    0.5630736430   -1.1119887160
H        0.5161062744    0.7385003808    1.6018720262
H       -0.9179748846   -1.5470170592   -0.6972907409
O       -1.4168733921   -0.8542469210    1.1902883030
C        0.7818673364   -0.1308503730   -0.0127945668
O        1.1266327659    0.8103581129    0.8358279263
H       -1.7405525722    1.0266875433   -0.0292673184
O        1.5226374465   -0.1729194172   -1.0794986381
C       -0.9806077452   -0.7296703833    0.0397393109
O       -1.3167228168    0.4701658727   -0.7088939865
10   
Iteration 5 Energy -379.41787820
H        2.1989501158    0.5833018719   -1.0987894267
H        0.4927287375    0.6982813050    1.5968608686
H       -0.9298273884   -1.5506792638   -0.6829347782
O       -1.4018027670   -0.8148752190    1.1987870530
C        0.8006248093   -0.1396734027   -0.0215345653
O        1.1234539452    0.7880461095    0.8473776045
H       -1.7524454706    1.0255022187   -0.0427107011
O        1.5517997955   -0.1573865769   -1.0812991143
C       -0.9937324537   -0.7169929312    0.0339532828
O       -1.3409203247    0.4585572868   -0.7217166233
10   
Iteration 6 Energy -379.41960957
H        2.2224321826    0.6059492697   -1.0823336717
H        0.4664756200    0.6572793557    1.5892197833
H       -0.9434919107   -1.5567350995   -0.6658272707
O       -1.3835544517   -0.7788738120    1.2088866096
C        0.8161419701   -0.1467181406   -0.0326096426
O        1.1175527506    0.7660545139    0.8575655931
H       -1.7606932410    1.0275009519   -0.0598358297
O        1.5803288024   -0.1394897290   -1.0833872005
C       -1.0048424260   -0.7076356305    0.0311876334
O       -1.3615202979    0.4467497182   -0.7348724045
10   
Iteration 7 Energy -379.42135738
H        2.2441374618    0.6294279236   -1.0634569530
H        0.4377067482    0.6159969410    1.5793427974
H       -0.9572208450   -1.5639106423   -0.6471018610
O       -1.3623138297   -0.7443093789    1.2193506157
C        0.8287692250   -0.1522108979   -0.0451837949
O        1.1089514280    0.7441858415    0.8664975201
H       -1.7661295981    1.0305226859   -0.0784766944
O        1.6074292067   -0.1203825219   -1.0853085402
C       -1.0130340044   -0.6999229803    0.0301476970
O       -1.3794667944    0.4346844266   -0.7478171871
10   
Iteration 8 Energy -379.42313304
H        2.2647128280    0.6531533533   -1.0426308793
H        0.4072494755    0.5747290334    1.5673648801
H       -0.9706865427   -1.5715147386   -0.6275053685
O       -1.3388062076   -0.7108122133    1.2293289461
C        0.8399222937   -0.1562914258   -0.0583219295
O        1.0987396300    0.7226373319    0.8745064689
H       -1.7702405656    1.0335992439   -0.0977255094
O        1.6336017139   -0.1004246626   -1.0866328505
C       -1.0193086351   -0.6930993532    0.0298457397
O       -1.3963549925    0.4221048277   -0.7602358982
10   
Iteration 9 Energy -379.42492517
H        2.2845034960    0.6769284474   -1.0197471363
H        0.3756398010    0.5337681068    1.5535261551
H       -0.9836519894   -1.5794111909   -0.6073293359
O       -1.3133609640   -0.6781051746    1.2383146523
C        0.8501391458   -0.1589828055   -0.0715241220
O        1.0876144903    0.7014086592    0.8819438059
H       -1.7739198197    1.0362359687   -0.1174777119
O        1.6591312349   -0.0796958091   -1.0870531819
C       -1.0240832675   -0.6868797434    0.0296678370
O       -1.4131831302    0.4088149376   -0.7723273630
10   
Iteration 10 Energy -379.42670643
H        2.3038196331    0.7004952098   -0.9947930228
H        0.3432909811    0.4931300350    1.5380406887
H       -0.9959474068   -1.5874605404   -0.5866946983
O       -1.2865238618   -0.6457779764    1.2459052706
C        0.8598606716   -0.1602157849   -0.0843702191
O        1.0762618648    0.6804493401    0.8891588735
H       -1.7778062178    1.0380955865   -0.1377986137
O        1.6841996808   -0.0582863670   -1.0863573867
C       -1.0276980854   -0.6809762464    0.0291843560
O       -1.4306282626    0.3946281394   -0.7842816492
10   
Iteration 11 Energy -379.42843251
H        2.3227389592    0.7236015741   -0.9673792819
H        0.3101732325    0.4529920837    1.5212037719
H       -1.0072413023   -1.5957625147   -0.5653622984
O       -1.2582335818   -0.6133538371    1.2519311716
C        0.8688302302   -0.1596958804   -0.0967356733
O        1.0650318287    0.6594709716    0.8964405230
H       -1.7823182968    1.0389390417   -0.1592356917
O        1.7086375038   -0.0361622231   -1.0844195613
C       -1.0296637378   -0.6751929502    0.0281216865
O       -1.4491258392    0.3792451296   -0.7965710510
10   
Iteration 12 Energy -379.43006689
H        2.3412592022    0.7456191371   -0.9369751725
H        0.2760153252    0.4140104908    1.5032137487
H       -1.0168470649   -1.6046514953   -0.5425233748
O       -1.2278153979   -0.5801538000    1.2564334528
C        0.8762284342   -0.1565291228   -0.1086210360
O        1.0543203996    0.6384247592    0.9038988232
H       -1.7881021573    1.0381661180   -0.1827326702
O        1.7317816586   -0.0132354426   -1.0812832652
C       -1.0287453048   -0.6693467685    0.0263231316
O       -1.4692660987    0.3617775186   -0.8097400449
10   
Iteration 13 Energy -379.43157532
H        2.3612694967    0.7657948399   -0.9036576315
H        0.2426842969    0.3769203658    1.4845424960
H       -1.0247146981   -1.6144497821   -0.5170661040
O       -1.1965279149   -0.5456034477    1.2592426900
C        0.8833141328   -0.1495226357   -0.1194529498
O        1.0465967775    0.6184215009    0.9115952277
H       -1.7978245041    1.0346483198   -0.2096704916
O        1.7541481112    0.0110512394   -1.0772976309
C       -1.0265738620   -0.6633270344    0.0235895618
O       -1.4935428405    0.3401480279   -0.8238315785
10   
Iteration 14 Energy -379.43278722
H        2.3835286229    0.7811846079   -0.8703573187
H        0.2186679301    0.3493568625    1.4698195593
H       -1.0300810660   -1.6253944995   -0.4901008873
O       -1.1708424755   -0.5136456905    1.2602494165
C        0.8905670182   -0.1383805448   -0.1284694756
O        1.0464752071    0.6033974965    0.9179593687
H       -1.8145053611    1.0272226550   -0.2397855587
O        1.7744582539    0.0352099670   -1.0739434366
C       -1.0264386547   -0.6586104294    0.0206230526
O       -1.5230004799    0.3137409679   -0.8380011359
10   
Iteration 15 Energy -379.43375536
H        2.4127882408    0.7909561936   -0.8386286086
H        0.2061812165    0.3317747735    1.4585367697
H       -1.0324984140   -1.6371622984   -0.4604737631
O       -1.1550473205   -0.4828179580    1.2604910180
C        0.9008552812   -0.1235720243   -0.1367839234
O        1.0548131262    0.5946827160    0.9225209981
H       -1.8406000817    1.0150455024   -0.2737329191
O        1.7959602324    0.0598212303   -1.0720671464
C       -1.0336762673   -0.6553326958    0.0194186838
O       -1.5599470194    0.2806859520   -0.8512875314
10   
Iteration 16 Energy -379.43447128
H        2.4481927019    0.7984513577   -0.8106112557
H        0.2031819642    0.3233644858    1.4488181079
H       -1.0348591766   -1.6481988970   -0.4330449015
O       -1.1490022727   -0.4563289991    1.2608652993
C        0.9158057580   -0.1099954652   -0.1466311406
O        1.0665057584    0.5901539053    0.9242704381
H       -1.8704222958    1.0019835160   -0.3059872769
O        1.8225344849    0.0836048072   -1.0707401990
C       -1.0523499386   -0.6553545330    0.0218818623
O       -1.6007579904    0.2464012122   -0.8608273634
10   
Iteration 17 Energy -379.43523168
H        2.4864559810    0.8003201537   -0.7765162800
H        0.2038857477    0.3231156896    1.4395176133
H       -1.0318790049   -1.6610993275   -0.4008787042
O       -1.1412779162   -0.4257502763    1.2615644976
C        0.9241166432   -0.0921667636   -0.1643794322
O        1.0745517679    0.5860161843    0.9215734478
H       -1.9019984136    0.9853844681   -0.3400623628
O        1.8504835541    0.1075536524   -1.0696956127
C       -1.0695774748   -0.6572148155    0.0278255427
O       -1.6459318923    0.2079224225   -0.8709551482
10   
Iteration 18 Energy -379.43566504
H        2.5110307496    0.7726768808   -0.7489186754
H        0.1963618734    0.3313806810    1.4297726792
H       -1.0043708867   -1.6654416297   -0.3686408575
O       -1.1237555178   -0.3894741150    1.2622197532
C        0.9058128662   -0.0616686700   -0.1812137723
O        1.0737939736    0.5823302800    0.9208228914
H       -1.9331909814    0.9618190604   -0.3647968738
O        1.8517326487    0.1161590466   -1.0710026433
C       -1.0526542357   -0.6483554852    0.0306531575
O       -1.6759314995    0.1746553360   -0.8809021082
10   
Iteration 19 Energy -379.43612685
H        2.5081180838    0.7315835599   -0.7577067968
H        0.1911029283    0.3367625242    1.4387196475
H       -0.9627119092   -1.6570857613   -0.3508268198
O       -1.1116379091   -0.3642536856    1.2623134745
C        0.8790407194   -0.0335337714   -0.1739660869
O        1.0745748964    0.5899035528    0.9288532429
H       -1.9577928682    0.9384204672   -0.3803307444
O        1.8172646234    0.1071613039   -1.0765270709
C       -1.0130599481   -0.6311482932    0.0277679149
O       -1.6760696280    0.1562714862   -0.8903032206
10   
Iteration 20 Energy -379.43649533
H        2.5436853776    0.7014130495   -0.7571094742
H        0.1890342891    0.3448556690    1.4324019621
H       -0.9384243953   -1.6492020967   -0.3310594850
O       -1.1119564119   -0.3373708507    1.2629142255
C        0.8903212870   -0.0086836932   -0.1655556915
O        1.1000341345    0.5976687393    0.9393918315
H       -2.0112408058    0.9101792252   -0.4100611991
O        1.8195956602    0.1167973634   -1.0794343959
C       -1.0194787256   -0.6189596019    0.0280554128
O       -1.7127414239    0.1173835751   -0.8915496633
10   
Iteration 21 Energy -379.43644999
H        2.5564746479    0.7161051870   -0.7485680749
H        0.1937448566    0.3372687570    1.4365054768
H       -0.9508525730   -1.6561076101   -0.3270220230
O       -1.1140798505   -0.3341694738    1.2632255568
C        0.9001711129   -0.0130262846   -0.1756003639
O        1.0986000922    0.5950258450    0.9344002926
H       -2.0122358759    0.9146957340   -0.4165246647
O        1.8387749895    0.1282692620   -1.0801219806
C       -1.0382201980   -0.6275570514    0.0330281276
O       -1.7235482157    0.1135770138   -0.8913288245
10   
Iteration 22 Energy -379.43646538
H        2.5698872110    0.7240628206   -0.7358008426
H        0.1888801020    0.3391069428    1.4224401803
H       -0.9566424738   -1.6605368705   -0.3188528831
O       -1.1154666617   -0.3276798232    1.2635654996
C        0.9088231253   -0.0123745872   -0.1848912615
O        1.1008368309    0.5890005516    0.9306413179
H       -2.0159370003    0.9127876858   -0.4190128882
O        1.8573355394    0.1364671138   -1.0787172947
C       -1.0515241291   -0.6316890592    0.0374025171
O       -1.7373635582    0.1049366035   -0.8887808262
10   
Iteration 23 Energy -379.43651669
H        2.5753201216    0.7239221102   -0.7299911617
H        0.1949197188    0.3396691794    1.4260835522
H       -0.9563375866   -1.6629426417   -0.3119709764
O       -1.1162680513   -0.3204844933    1.2620631486
C        0.9100714695   -0.0082902788   -0.1890520599
O        1.1029933326    0.5907807225    0.9282250404
H       -2.0215700485    0.9077571966   -0.4261002707
O        1.8624080662    0.1405225023   -1.0792254298
C       -1.0566952363   -0.6325237944    0.0384210843
O       -1.7460128008    0.0956708743   -0.8904594128
10   
Iteration 24 Energy -379.43660077
H        2.5845752272    0.7191479498   -0.7242460225
H        0.1957093422    0.3432690833    1.4205741761
H       -0.9490130283   -1.6646287563   -0.2984820447
O       -1.1147274503   -0.3093496449    1.2635681445
C        0.9099397354    0.0007316742   -0.1937039652
O        1.1056927612    0.5917383873    0.9278663283
H       -2.0344011240    0.8986953380   -0.4389980894
O        1.8664746328    0.1460417633   -1.0799278609
C       -1.0582284886   -0.6322995437    0.0433183519
O       -1.7571926238    0.0807351245   -0.8919755131
10   
Iteration 25 Energy -379.43669533
H        2.5904235801    0.7025391934   -0.7233320022
H        0.1980945273    0.3562356275    1.4254681859
H       -0.9312259434   -1.6641556590   -0.2812101034
O       -1.1137716197   -0.2887110887    1.2617269264
C        0.9028396968    0.0151260017   -0.1955020647
O        1.1095268056    0.5948477687    0.9285923255
H       -2.0496424196    0.8794690875   -0.4532240863
O        1.8600480787    0.1476566946   -1.0828390548
C       -1.0513288956   -0.6269834424    0.0439828463
O       -1.7661348289    0.0580571888   -0.8956694860
10   
Iteration 26 Energy -379.43677016
H        2.6043867249    0.6793934761   -0.7225716897
H        0.2037216698    0.3582629372    1.4201740236
H       -0.9115697842   -1.6617895733   -0.2478428130
O       -1.1191826217   -0.2575913524    1.2644901401
C        0.9000543974    0.0332798425   -0.1974258716
O        1.1178462595    0.6025825252    0.9293839936
H       -2.0761555800    0.8590084641   -0.4826411378
O        1.8576782539    0.1496134088   -1.0863952042
C       -1.0493899978   -0.6199635264    0.0543159246
O       -1.7785603451    0.0312851637   -0.9034939154
10   
Iteration 27 Energy -379.43679787
H        2.6194005271    0.6567422147   -0.7170428288
H        0.2015514728    0.3951257265    1.4224230065
H       -0.8926554769   -1.6607064097   -0.2281543380
O       -1.1083398476   -0.2334476955    1.2622423936
C        0.8962428730    0.0489208665   -0.2051089846
O        1.1224096389    0.6054272012    0.9263742929
H       -2.1062685253    0.8300472983   -0.4993802876
O        1.8608113497    0.1496680474   -1.0883642332
C       -1.0475217634   -0.6152965885    0.0564438848
O       -1.7968012790   -0.0023993041   -0.9014395081
10   
Iteration 28 Energy -379.43685398
H        2.6227951822    0.6467085111   -0.7206415740
H        0.2042925210    0.3883476545    1.4153459537
H       -0.8828057225   -1.6595159525   -0.2071634390
O       -1.1171617133   -0.2144168710    1.2634699351
C        0.8953611837    0.0562182038   -0.2060976639
O        1.1251821714    0.6135822622    0.9233746447
H       -2.1129716586    0.8203135955   -0.5070359338
O        1.8587519840    0.1478825011   -1.0920209231
C       -1.0450275866   -0.6118511125    0.0630861924
O       -1.7995873964   -0.0131874410   -0.9043238266
10   
Iteration 29 Energy -379.43687067
H        2.6292362391    0.6263261491   -0.7259706355
H        0.2058499930    0.4184279651    1.4115585580
H       -0.8720423791   -1.6593373271   -0.1715447003
O       -1.1155650547   -0.1833493378    1.2658078508
C        0.8938823470    0.0609281980   -0.2096374211
O        1.1284969894    0.6280032093    0.9145284082
H       -2.1297690602    0.7993721232   -0.5319103340
O        1.8606314481    0.1321582811   -1.0939957685
C       -1.0455546449   -0.6073966958    0.0746775470
O       -1.8063369315   -0.0410512354   -0.9055202733
10   
Iteration 30 Energy -379.43684996
H        2.6340436016    0.5744733375   -0.7165925977
H        0.1749722152    0.5296549625    1.3860060458
H       -0.8518545988   -1.6653046733   -0.0680607856
O       -1.1535570505   -0.0952056073    1.2541749431
C        0.8914925329    0.0441909043   -0.1901326976
O        1.1052643430    0.6975620772    0.8912633726
H       -2.1119110238    0.7524928870   -0.6302477852
O        1.8763913795    0.0452179980   -1.0570674231
C       -1.0401355844   -0.6002476042    0.0986441931
O       -1.7758770102   -0.1087531102   -0.9399951863
10   
Iteration 31 Energy -379.43688391
H        2.6301075468    0.5914696525   -0.7365819985
H        0.1956383815    0.4852935378    1.3941566265
H       -0.8622500526   -1.6636888990   -0.1006079797
O       -1.1298788590   -0.1255432090    1.2657964406
C        0.8917909821    0.0516836214   -0.2047458256
O        1.1210796955    0.6692987956    0.8937849554
H       -2.1237184862    0.7714756029   -0.5789915019
O        1.8643302207    0.0792842613   -1.0851062346
C       -1.0423650951   -0.6023646857    0.0958408764
O       -1.7959054898   -0.0828274642   -0.9155529347
10   
Iteration 32 Energy -379.43689834
H        2.6299994389    0.5971663064   -0.7476636356
H        0.2006989159    0.4810987765    1.3896589479
H       -0.8676091856   -1.6669769412   -0.0959907907
O       -1.1161339562   -0.1267768875    1.2708014261
C        0.8941644074    0.0536226722   -0.2102062108
O        1.1238238146    0.6718089577    0.8876823527
H       -2.1313566153    0.7688438831   -0.5674140227
O        1.8629949064    0.0854131218   -1.0941575585
C       -1.0432259152   -0.6049205678    0.1004664256
O       -1.8045270001   -0.0851981444   -0.9051847670
10   
Iteration 33 Energy -379.43686422
H        2.6113949718    0.5990528330   -0.8076597623
H        0.2347137693    0.4748393666    1.3884930300
H       -0.8879604590   -1.6705738698   -0.0839549240
O       -1.0912535631   -0.1314850628    1.2935147438
C        0.8919078947    0.0473598538   -0.2301069279
O        1.1512761688    0.6586544835    0.8635372797
H       -2.1326864279    0.7825823317   -0.5090091830
O        1.8355628728    0.0915070198   -1.1416154354
C       -1.0418118399   -0.6069199037    0.1192087489
O       -1.8223147720   -0.0709360929   -0.8644169014
10   
Iteration 34 Energy -379.43689838
H        2.6231383217    0.5990960432   -0.7678567454
H        0.2116808881    0.4797386541    1.3898651657
H       -0.8751927528   -1.6690573844   -0.0927537207
O       -1.1088259931   -0.1294670118    1.2783630794
C        0.8935776144    0.0506982696   -0.2165673160
O        1.1332499969    0.6670964408    0.8794915531
H       -2.1306251286    0.7739728566   -0.5467623303
O        1.8536573615    0.0880430601   -1.1104514248
C       -1.0421815464   -0.6063620532    0.1063511186
O       -1.8096500050   -0.0796777584   -0.8916876276
10   
Iteration 35 Energy -379.43690276
H        2.6244924050    0.5998945792   -0.7679832856
H        0.2111244191    0.4767856744    1.3890056449
H       -0.8757822362   -1.6681821850   -0.0931854172
O       -1.1075910416   -0.1291936121    1.2788305281
C        0.8947722854    0.0501824564   -0.2167445401
O        1.1324531961    0.6669858553    0.8798833682
H       -2.1310031326    0.7747430987   -0.5476546101
O        1.8552417283    0.0883675080   -1.1101356074
C       -1.0442209457   -0.6057624841    0.1068574948
O       -1.8106579218   -0.0797397749   -0.8908818287
10   
Iteration 36 Energy -379.43690363
H        2.6213699438    0.6035016661   -0.7734989486
H        0.2139433319    0.4728793582    1.3889756715
H       -0.8784468102   -1.6684415682   -0.0946143471
O       -1.1035366464   -0.1326860972    1.2820668093
C        0.8945685018    0.0483508955   -0.2187270297
O        1.1337725693    0.6649518107    0.8777115650
H       -2.1275419794    0.7801234815   -0.5430669007
O        1.8534305103    0.0887242406   -1.1137510842
C       -1.0451928226   -0.6065091431    0.1089765495
O       -1.8135378687   -0.0768135571   -0.8860807343
10   
Iteration 37 Energy -379.43690331
H        2.6195997755    0.6043161197   -0.7799773589
H        0.2171768013    0.4694170057    1.3889381651
H       -0.8807515293   -1.6679636211   -0.0938468934
O       -1.1010542846   -0.1327706328    1.2844127646
C        0.8947560392    0.0474721688   -0.2209547722
O        1.1367179602    0.6623245542    0.8757586365
H       -2.1265625335    0.7828839027   -0.5372189378
O        1.8511085755    0.0894226979   -1.1187690267
C       -1.0461743311   -0.6060904376    0.1107359129
O       -1.8159877653   -0.0749306943   -0.8810871026
10   
Iteration 38 Energy -379.43690348
H        2.6198511506    0.6044371772   -0.7796042637
H        0.2169792450    0.4698699617    1.3887478676
H       -0.8805673970   -1.6681003739   -0.0940117844
O       -1.1004263336   -0.1332296490    1.2846828751
C        0.8948073222    0.0475959770   -0.2210830321
O        1.1365767540    0.6626242690    0.8755946319
H       -2.1271403702    0.7828081663   -0.5376170499
O        1.8514322817    0.0895482668   -1.1185957789
C       -1.0461700308   -0.6063411583    0.1110263509
O       -1.8165135824   -0.0751312121   -0.8811460106
