3    
Climbing Image - Chain 10 Image 4 Energy   -93.2928243554 (+62.528 kcal/mol) RMSGrad 0.033 eV/Ang
C       -0.0348497057   -0.6863769667   -0.0000000000
N       -0.6563885607    0.3532733441    0.0000000000
H        0.6912413568    0.3331099994    0.0000000000
