3    
Climbing Image - Chain 10 Image 4 Energy   -93.2928243555 (+62.528 kcal/mol) RMSGrad 0.033 eV/Ang
C       -0.0348497043   -0.6863769694   -0.0000000000
N       -0.6563885555    0.3532733460   -0.0000000000
H        0.6912413503    0.3331100003    0.0000000000
