3    
Climbing Image - Chain 10 Image 4 Energy   -93.2928243554 (+62.528 kcal/mol) RMSGrad 0.033 eV/Ang
C       -0.0348497042   -0.6863769701   -0.0000000000
N       -0.6563885610    0.3532733453   -0.0000000000
H        0.6912413556    0.3331100017    0.0000000000
