3    
Climbing Image - Chain 10 Image 4 Energy   -93.2928259992 (+62.527 kcal/mol) RMSGrad 0.026 eV/Ang
C       -0.0349525637   -0.6866390870   -0.0000000000
N       -0.6556062738    0.3533378586   -0.0000000000
H        0.6905619065    0.3333076088    0.0000000000
