3    
Climbing Image - Chain 10 Image 4 Energy   -93.2928243555 (+62.528 kcal/mol) RMSGrad 0.033 eV/Ang
C       -0.0348497067   -0.6863769711   -0.0000000000
N       -0.6563885599    0.3532733426    0.0000000000
H        0.6912413570    0.3331100053    0.0000000000
