3    
Climbing Image - Chain 29 Image 4 Energy   -93.2928248545 (+62.528 kcal/mol) RMSGrad 0.011 eV/Ang
C       -0.0584163619   -0.6833342438    0.0000000000
N       -0.6436367729    0.3768150928    0.0000000000
H        0.7020091315    0.3065360301    0.0000000000
