3    
Climbing Image - Chain 10 Image 4 Energy   -93.2928259993 (+62.527 kcal/mol) RMSGrad 0.026 eV/Ang
C       -0.0349525495   -0.6866390637   -0.0000000000
N       -0.6556062718    0.3533378596   -0.0000000000
H        0.6905618902    0.3333075845    0.0000000000
