30   
Iteration 0 Energy -1011.84502796
H       -0.5220000000   -2.8130000000   -2.8020000000
C       -0.4610000000   -2.9670000000   -1.7520000000
C       -0.3920000000   -3.1420000000   -0.5590000000
C       -0.3130000000   -3.3390000000    0.7870000000
N       -0.2460000000   -3.5080000000    1.9420000000
H        2.9550000000    0.7240000000   -2.6980000000
C        2.5350000000    1.4220000000   -2.0160000000
C        2.0570000000    2.2150000000   -1.2410000000
C        1.5180000000    3.1100000000   -0.3660000000
N        1.0560000000    3.8780000000    0.3840000000
H       -0.5780000000    1.4180000000    3.7160000000
C       -1.2870000000    1.3900000000    2.9240000000
C       -2.0920000000    1.3580000000    2.0240000000
C       -3.0000000000    1.3220000000    1.0100000000
N       -3.7790000000    1.2910000000    0.1390000000
H       -2.6160000000   -1.7620000000    2.5200000000
C       -2.7220000000   -1.6770000000    1.4660000000
C       -2.8430000000   -1.5800000000    0.2680000000
C       -2.9790000000   -1.4710000000   -1.0830000000
N       -3.0960000000   -1.3780000000   -2.2420000000
H        2.3760000000   -2.1380000000    2.4400000000
C        2.3780000000   -2.1520000000    1.3780000000
C        2.3790000000   -2.1680000000    0.1700000000
C        2.3800000000   -2.1860000000   -1.1920000000
N        2.3820000000   -2.2010000000   -2.3610000000
H       -0.3920000000   -0.0050000000   -0.7010000000
C        0.2610000000    0.2270000000    0.1050000000
C        1.0030000000    0.4910000000    1.0210000000
C        1.8390000000    0.7880000000    2.0550000000
N        2.5560000000    1.0440000000    2.9410000000
30   
Iteration 1 Energy -1011.85932323
H       -0.5323381458   -2.8497309652   -2.7739486809
C       -0.4921793028   -3.0528595157   -1.7299320234
C       -0.4377244430   -3.2570969075   -0.5402298001
C       -0.3661403414   -3.4514303162    0.8035778324
N       -0.3005936068   -3.5975526465    1.9614891572
H        2.9576677982    0.7220844750   -2.7130107380
C        2.5614994784    1.4650974260   -2.0631615751
C        2.0948550748    2.2797473923   -1.3027989990
C        1.5543296040    3.1665227717   -0.4202841198
N        1.0846035843    3.9119844750    0.3488150999
H       -0.6087782510    1.4357545560    3.7424099612
C       -1.3436404201    1.4391639012    2.9736188478
C       -2.1508305994    1.4427100201    2.0754865583
C       -3.0338038777    1.4376028226    1.0404290263
N       -3.7854475012    1.4183486699    0.1447172556
H       -2.6357242867   -1.8174892314    2.5078973897
C       -2.7906928007   -1.7313185743    1.4602909533
C       -2.9379504547   -1.6163660301    0.2674969895
C       -3.0629250933   -1.4684216893   -1.0789720108
N       -3.1417053268   -1.3456039452   -2.2393910793
H        2.4445555192   -2.2035874209    2.4196118617
C        2.5273782045   -2.2155664227    1.3593526082
C        2.5677261508   -2.2024376294    0.1532112397
C        2.5527385676   -2.1606744322   -1.2050596340
N        2.5161735665   -2.1155492720   -2.3735381244
H       -0.4133120612    0.0042911000   -0.6989826117
C        0.2298706389    0.2336047645    0.1146796097
C        0.9675913255    0.4948581460    1.0318941460
C        1.8058111791    0.7888780015    2.0611449708
N        2.5259858175    1.0360364735    2.9501858957
30   
Iteration 2 Energy -1011.86922630
H       -0.5154110837   -2.9381385507   -2.7486830020
C       -0.4498184110   -3.1763605822   -1.7137040568
C       -0.3836841699   -3.4061783522   -0.5285994164
C       -0.3135150052   -3.5970489025    0.8156400567
N       -0.2539406017   -3.7184389989    1.9774448654
H        2.9534334195    0.7186054752   -2.7477750021
C        2.5976414804    1.5196581155   -2.1431487366
C        2.1565274232    2.3701657280   -1.4064077198
C        1.6300614047    3.2652480054   -0.5248537045
N        1.1641491683    3.9994527870    0.2577902634
H       -0.6963554270    1.5004028101    3.8287758217
C       -1.4470871634    1.5364272277    3.0761145681
C       -2.2435844683    1.5763088280    2.1689353172
C       -3.0848238003    1.5941151663    1.1000239677
N       -3.7891612962    1.5827720987    0.1659717291
H       -2.7278564121   -1.9026606389    2.4930613108
C       -2.9375090253   -1.7724987611    1.4592186940
C       -3.1106564172   -1.6154853629    0.2739693564
C       -3.2061006382   -1.4286353203   -1.0696913222
N       -3.2243017762   -1.2775833872   -2.2297585540
H        2.5746946180   -2.3610742099    2.4015491541
C        2.6874208310   -2.3388895868    1.3437586008
C        2.7451981928   -2.2622904011    0.1392685356
C        2.7187969605   -2.1183943898   -1.2120874339
N        2.6547015566   -1.9654827930   -2.3708993025
H       -0.4513168445   -0.0127993239   -0.7125850611
C        0.1917077991    0.2016671731    0.1059981735
C        0.9232929588    0.4587359273    1.0310341071
C        1.7455877531    0.7564103775    2.0716187384
N        2.4489090138    1.0029898704    2.9750200668
30   
Iteration 3 Energy -1011.87408479
H       -0.5095276002   -3.0354168398   -2.7399374269
C       -0.4381920725   -3.2640975768   -1.7033100245
C       -0.3703515759   -3.4946053867   -0.5185571890
C       -0.3002773492   -3.6846179853    0.8270483047
N       -0.2413532291   -3.8041162165    1.9892333532
H        2.9413609340    0.7057727887   -2.7899655529
C        2.6169830238    1.5384842625   -2.2099364380
C        2.2035180561    2.4177605567   -1.4906689361
C        1.7053152195    3.3416478452   -0.6229345897
N        1.2616338456    4.0983479020    0.1510400139
H       -0.7938907565    1.5853365551    3.9367018358
C       -1.5278983441    1.6344403765    3.1683836701
C       -2.3036676175    1.6921422333    2.2437795716
C       -3.1195139465    1.7218492688    1.1547248768
N       -3.7956746069    1.7202004479    0.2001019025
H       -2.8376377629   -2.0050518750    2.4943202355
C       -3.0371315823   -1.8300876268    1.4648980956
C       -3.2031174990   -1.6307632619    0.2845577049
C       -3.2753124459   -1.4093708923   -1.0566050328
N       -3.2672375494   -1.2300962998   -2.2127080929
H        2.7254236156   -2.5473067197    2.3785767812
C        2.8256656918   -2.4495837139    1.3238317051
C        2.8840392592   -2.2901065644    0.1273098172
C        2.8631935807   -2.0415107720   -1.2097698597
N        2.8054227674   -1.7847987256   -2.3501020543
H       -0.4951356860   -0.0323913950   -0.7395797066
C        0.1477206700    0.1755295154    0.0815321721
C        0.8697817002    0.4266715898    1.0169226030
C        1.6711027376    0.7138241838    2.0782055303
N        2.3517585728    0.9529143960    2.9999067737
30   
Iteration 4 Energy -1011.87804014
H       -0.5096440133   -3.1878998590   -2.7384694054
C       -0.4277864594   -3.3816618651   -1.6955864612
C       -0.3523495659   -3.5959677397   -0.5084965140
C       -0.2761690590   -3.7839520105    0.8377147608
N       -0.2132006097   -3.9137348569    1.9984311718
H        2.9213908861    0.6862335463   -2.8540139468
C        2.6328098678    1.5511444099   -2.3006556917
C        2.2604969708    2.4661721512   -1.6034603162
C        1.8139509254    3.4429500375   -0.7663889431
N        1.4174173847    4.2544172410   -0.0228827032
H       -0.9400480179    1.7292849132    4.1056803899
C       -1.6287931089    1.7803436185    3.2968926104
C       -2.3669085163    1.8431156156    2.3423941127
C       -3.1550935710    1.8788404788    1.2326456789
N       -3.8090853846    1.8878952614    0.2627916467
H       -3.0242519941   -2.1507225197    2.5042210078
C       -3.1716047884   -1.9104417177    1.4790628878
C       -3.3014391729   -1.6501367341    0.3063095886
C       -3.3394562071   -1.3775396986   -1.0272314902
N       -3.3096398047   -1.1566893126   -2.1756737721
H        2.9433483192   -2.8402685055    2.3222572446
C        3.0087292628   -2.6063564897    1.2865535435
C        3.0602594688   -2.3128501695    0.1155093726
C        3.0613871376   -1.9130644175   -1.1850700749
N        3.0381319609   -1.5227639968   -2.2874694834
H       -0.5579566773   -0.0530890670   -0.7958183036
C        0.0742737118    0.1430914529    0.0366623035
C        0.7752460184    0.3787917375    0.9921105608
C        1.5429857456    0.6422219890    2.0848482678
N        2.1899993505    0.8636366253    3.0341320217
30   
Iteration 5 Energy -1011.87944421
H       -0.5129310216   -3.2862457679   -2.7430104241
C       -0.4250229168   -3.4498238877   -1.6956454052
C       -0.3410652729   -3.6434860849   -0.5057763031
C       -0.2554193721   -3.8300664610    0.8399720179
N       -0.1843856972   -3.9720291703    1.9987250299
H        2.9178938006    0.6992478614   -2.8943687937
C        2.6362665823    1.5795558153   -2.3604664023
C        2.2869404439    2.5116336063   -1.6742549583
C        1.8781315687    3.5229593202   -0.8605195614
N        1.5191010424    4.3746679997   -0.1435349383
H       -1.0306618686    1.8370303574    4.2181379285
C       -1.6807991888    1.8771279336    3.3776328922
C       -2.3910781459    1.9265983652    2.4015737258
C       -3.1648997051    1.9561724932    1.2816525831
N       -3.8149121791    1.9663952640    0.3092244076
H       -3.1651144122   -2.2370295686    2.5182238111
C       -3.2574503483   -1.9629040624    1.4952007329
C       -3.3425298721   -1.6659829413    0.3272245865
C       -3.3508723275   -1.3546815587   -0.9980547143
N       -3.3080786116   -1.1017635701   -2.1394643580
H        3.0728456706   -3.0319124711    2.2754294496
C        3.1170992417   -2.7063008090    1.2638378999
C        3.1615385056   -2.3317363655    0.1161062107
C        3.1823357192   -1.8598961860   -1.1594910934
N        3.1896975344   -1.4213346061   -2.2430066879
H       -0.6013508084   -0.0552524582   -0.8466192779
C        0.0148532046    0.1268507667    0.0011239115
C        0.6966957129    0.3445753603    0.9746525148
C        1.4416754300    0.5866842006    2.0881504456
N        2.0684973672    0.7919467528    3.0543448230
30   
Iteration 6 Energy -1011.88048602
H       -0.5266499137   -3.3770736967   -2.7513396115
C       -0.4322227932   -3.5110578919   -1.7004938832
C       -0.3337860898   -3.6778178531   -0.5077770524
C       -0.2292891100   -3.8596934813    0.8371272967
N       -0.1407013850   -4.0120303192    1.9933047887
H        2.9267428203    0.7330496844   -2.9241467366
C        2.6354026658    1.6239238117   -2.4137188276
C        2.3033790247    2.5715286713   -1.7403482565
C        1.9318081967    3.6193108514   -0.9560727506
N        1.6123453181    4.5123291102   -0.2714600001
H       -1.1082953184    1.9593595305    4.3270080489
C       -1.7194825681    1.9782666618    3.4572274036
C       -2.4013139678    1.9987470168    2.4601403173
C       -3.1611436027    2.0066106620    1.3304651262
N       -3.8100733604    2.0047196905    0.3572901214
H       -3.3254786458   -2.3213264721    2.5372832438
C       -3.3481605770   -2.0194697211    1.5182526216
C       -3.3673311146   -1.6856598688    0.3575077937
C       -3.3286447551   -1.3297246453   -0.9555240032
N       -3.2592392175   -1.0375934570   -2.0862896216
H        3.1790982481   -3.2129236541    2.2281140396
C        3.2144412656   -2.8071737975    1.2457094321
C        3.2558039487   -2.3609456040    0.1239435855
C        3.2985089578   -1.8384829983   -1.1309695095
N        3.3339309140   -1.3769410323   -2.2040371847
H       -0.6465551765   -0.0434821948   -0.9140845168
C       -0.0518102808    0.1173730286   -0.0466354308
C        0.6051366433    0.3080902369    0.9494853090
C        1.3230960876    0.5225166120    2.0862178093
N        1.9274838719    0.7065712838    3.0708204812
30   
Iteration 7 Energy -1011.88139406
H       -0.5549718469   -3.4552405880   -2.7611208298
C       -0.4499327134   -3.5672950962   -1.7088102433
C       -0.3300079320   -3.7065670838   -0.5146025547
C       -0.1958875233   -3.8781562395    0.8289234641
N       -0.0784129361   -4.0329208840    1.9821877703
H        2.9419323975    0.7595817763   -2.9247538374
C        2.6374780087    1.6633697735   -2.4462987144
C        2.3195792604    2.6352000197   -1.8009056701
C        1.9809659781    3.7273155009   -1.0627729017
N        1.6979474919    4.6647392769   -0.4228110818
H       -1.1689366984    2.0954940044    4.4290509427
C       -1.7474095664    2.0832653683    3.5371341106
C       -2.4023392911    2.0620454338    2.5221647000
C       -3.1455303614    2.0322194772    1.3819514285
N       -3.7890068923    2.0016368241    0.4056236765
H       -3.5072710313   -2.4072121444    2.5562727339
C       -3.4516535303   -2.0802408875    1.5463776922
C       -3.3856346700   -1.7083480607    0.3991579078
C       -3.2731880455   -1.3029729896   -0.8947788063
N       -3.1485354339   -0.9652268025   -2.0080851599
H        3.2604031658   -3.3830909076    2.1761613809
C        3.3039501850   -2.9134575118    1.2227172869
C        3.3492057554   -2.3991073351    0.1304889866
C        3.4089795912   -1.8249309553   -1.1013508141
N        3.4601697320   -1.3341876399   -2.1610793019
H       -0.6954927180   -0.0182128808   -0.9976516663
C       -0.1253890502    0.1148942512   -0.1086746937
C        0.5001097285    0.2700923282    0.9136579237
C        1.1845693180    0.4504522812    2.0766069753
N        1.7613097339    0.6078618714    3.0822193138
30   
Iteration 8 Energy -1011.88249162
H       -0.6178577750   -3.5407582804   -2.7736246261
C       -0.4881065875   -3.6340033822   -1.7222968871
C       -0.3280687772   -3.7390200043   -0.5293442315
C       -0.1386099791   -3.8893993779    0.8100031326
N        0.0334799239   -4.0351440877    1.9575947892
H        2.9672757017    0.7868301609   -2.8778708906
C        2.6496130861    1.7152893288   -2.4587712929
C        2.3470902817    2.7313501602   -1.8769718979
C        2.0432808699    3.8872756869   -1.2247647909
N        1.8007583230    4.8841098601   -0.6626159455
H       -1.2259414937    2.2946407928    4.5509355306
C       -1.7704644233    2.2263239688    3.6403834481
C       -2.3923918518    2.1332562991    2.6087990191
C       -3.1084904213    2.0297236575    1.4558182079
N       -3.7353624336    1.9365447894    0.4726670939
H       -3.7821772421   -2.5203313155    2.5685336434
C       -3.6108115389   -2.1621592453    1.5824995872
C       -3.4075423125   -1.7416804969    0.4688215820
C       -3.1583648624   -1.2707182041   -0.7825431229
N       -2.9153700461   -0.8698097243   -1.8547316082
H        3.3357789434   -3.5959235838    2.1001285360
C        3.4094882897   -3.0622625191    1.1825993232
C        3.4692536435   -2.4653084854    0.1338129835
C        3.5443544915   -1.8207918166   -1.0622780393
N        3.6029834675   -1.2814859066   -2.0981394757
H       -0.7595398460    0.0387056909   -1.1252381131
C       -0.2268884819    0.1264437318   -0.2069014752
C        0.3447985714    0.2226935420    0.8536943085
C        0.9723106704    0.3467242044    2.0550783018
N        1.5025219582    0.4598847512    3.0917229427
30   
Iteration 9 Energy -1011.88345589
H       -0.6632590146   -3.5327371182   -2.7770403535
C       -0.5131853158   -3.6343152292   -1.7291633055
C       -0.3289563936   -3.7371492548   -0.5394850438
C       -0.1069167852   -3.8758352779    0.7961328700
N        0.0969573711   -4.0061819564    1.9404105665
H        2.9824952627    0.7789460295   -2.8108066724
C        2.6666580300    1.7225176775   -2.4243455136
C        2.3612872210    2.7615911402   -1.8861299904
C        2.0499135035    3.9386301201   -1.2761631831
N        1.8001189099    4.9514137640   -0.7465481117
H       -1.2026949865    2.3536737868    4.5584929195
C       -1.7548499682    2.2567874083    3.6550867122
C       -2.3768946865    2.1298776335    2.6272234767
C       -3.0839961084    1.9822044657    1.4735499719
N       -3.6978417060    1.8461203273    0.4871737385
H       -3.8734215422   -2.5435700359    2.5756756084
C       -3.6706679669   -2.1818488508    1.5968630280
C       -3.4223113059   -1.7565629809    0.4941400576
C       -3.1145291574   -1.2780314393   -0.7408841674
N       -2.8096954001   -0.8681832055   -1.7933110601
H        3.3065624255   -3.6220407533    2.0909646495
C        3.4080683539   -3.0985877781    1.1701611278
C        3.4833424421   -2.4964609942    0.1252925610
C        3.5549930376   -1.8385913168   -1.0638161388
N        3.6013519119   -1.2812953744   -2.0908855481
H       -0.7450900474    0.0944230853   -1.1755235406
C       -0.2294333913    0.1620871432   -0.2456695508
C        0.3127925193    0.2293637398    0.8324246584
C        0.9100127393    0.3231918105    2.0511240671
N        1.4161901912    0.4115636326    3.1020562006
30   
Iteration 10 Energy -1011.88517240
H       -0.8061036473   -3.3986898524   -2.7709916892
C       -0.5860038096   -3.5542148084   -1.7421298505
C       -0.3325998703   -3.6870065059   -0.5681922681
C       -0.0223854283   -3.8018687439    0.7518889868
N        0.2659044598   -3.8801521321    1.8828181586
H        3.0204108286    0.7169663965   -2.5502349895
C        2.7241840097    1.6994701575   -2.2481955172
C        2.3886199950    2.7869729052   -1.8387425368
C        2.0074621399    3.9899783088   -1.3270201849
N        1.6818784963    5.0130033810   -0.8620556844
H       -1.0337810274    2.3970827683    4.4484813021
C       -1.6515611669    2.2308764913    3.5990992750
C       -2.3114454374    2.0282687989    2.6077067803
C       -3.0120928940    1.7626200204    1.4714790135
N       -3.5906728894    1.5059886540    0.4876314121
H       -3.9803554714   -2.5286086545    2.6087470803
C       -3.7597197982   -2.1843017029    1.6274026386
C       -3.4650900409   -1.7897469520    0.5244560435
C       -3.0578850422   -1.3496406999   -0.6959078408
N       -2.6357153582   -0.9751487722   -1.7190267693
H        3.0809511142   -3.4981940599    2.1312376337
C        3.2652109012   -3.0864103306    1.1676372138
C        3.3936026983   -2.5558618687    0.0897205394
C        3.4448774776   -1.9235569692   -1.1135395341
N        3.4423605066   -1.3504053508   -2.1327548267
H       -0.5863783264    0.2888900262   -1.2570533443
C       -0.1009228944    0.3199753067   -0.3089048546
C        0.3672493188    0.3196419176    0.8053051237
C        0.8842564384    0.3365303657    2.0619418033
N        1.3227448323    0.3585420620    3.1461969180
30   
Iteration 11 Energy -1011.88569668
H       -0.8152761338   -3.4373915680   -2.7648971298
C       -0.5856576975   -3.5792048258   -1.7363158204
C       -0.3251503677   -3.7094584771   -0.5637632651
C       -0.0116913418   -3.8333315301    0.7544790422
N        0.2786657966   -3.9276545544    1.8836274954
H        3.0183083901    0.7323883696   -2.5745266584
C        2.7247392003    1.7165656704   -2.2733640078
C        2.3988725788    2.8071937263   -1.8642492591
C        2.0344188381    4.0211478567   -1.3674555953
N        1.7237537873    5.0579900272   -0.9234625254
H       -1.0734233917    2.4364983097    4.4951049830
C       -1.6700667106    2.2703240323    3.6309491137
C       -2.3195300026    2.0676057949    2.6326581249
C       -3.0218635120    1.8078278993    1.4963351787
N       -3.6098914395    1.5629988635    0.5153143457
H       -4.0504578676   -2.5629769732    2.5915184083
C       -3.7970719585   -2.2063156331    1.6225014455
C       -3.4814898355   -1.7973693944    0.5307124330
C       -3.0615133824   -1.3442307704   -0.6814156451
N       -2.6435118112   -0.9629089521   -1.7045059407
H        3.1420477847   -3.5826604789    2.0993445408
C        3.3078465840   -3.1198939553    1.1557341655
C        3.4306399721   -2.5569538117    0.0936307616
C        3.4991062822   -1.8975539488   -1.0937314795
N        3.5224634519   -1.3075804972   -2.1026904821
H       -0.6087832488    0.2733839091   -1.2652027242
C       -0.1277302732    0.3039266823   -0.3150013985
C        0.3412883983    0.3032599188    0.7993806305
C        0.8538644757    0.3176209428    2.0593288968
N        1.2840935430    0.3377535380    3.1469623969
30   
Iteration 12 Energy -1011.88629346
H       -0.8853923363   -3.4513364169   -2.7421552731
C       -0.6126364556   -3.5900949134   -1.7239102064
C       -0.3120897735   -3.7325614064   -0.5625106055
C        0.0412559270   -3.8746678249    0.7433993240
N        0.3658284019   -3.9897772851    1.8612816205
H        3.0378250155    0.7496181060   -2.5306408427
C        2.7446901318    1.7435583670   -2.2589983168
C        2.4223715048    2.8498810045   -1.8911298864
C        2.0639426542    4.0879489404   -1.4542649766
N        1.7554707988    5.1494396564   -1.0712263148
H       -1.0871871164    2.5122086458    4.5337533540
C       -1.6668279562    2.3254309478    3.6624007567
C       -2.3119127767    2.1002130052    2.6660839175
C       -3.0196556931    1.8176847770    1.5387249640
N       -3.6187748231    1.5596606545    0.5679930241
H       -4.2071571492   -2.6121166872    2.5613897789
C       -3.8901468855   -2.2426158966    1.6162318938
C       -3.5252124365   -1.8213797263    0.5447761627
C       -3.0593454030   -1.3632243490   -0.6493659915
N       -2.6213682056   -0.9870333259   -1.6664458411
H        3.1685452000   -3.6851693562    2.0529722732
C        3.3271421817   -3.1676382166    1.1371774783
C        3.4566743710   -2.5731719726    0.0932883694
C        3.5529491771   -1.8783204958   -1.0710412378
N        3.6098136697   -1.2601022251   -2.0611860326
H       -0.5944462667    0.3006899588   -1.2906158326
C       -0.1275099328    0.3237784370   -0.3336052888
C        0.3266721262    0.3066472817    0.7870343019
C        0.8121095575    0.2972551940    2.0590022275
N        1.2113726109    0.2961952970    3.1585872262
30   
Iteration 13 Energy -1011.88689334
H       -0.9907176416   -3.4348090710   -2.6953152630
C       -0.6561048637   -3.5900167963   -1.6982400307
C       -0.2969441814   -3.7676078216   -0.5585408055
C        0.1147168012   -3.9502946171    0.7247096396
N        0.4870750630   -4.1027028666    1.8230941894
H        3.0848187488    0.7785669270   -2.4562580336
C        2.7808732975    1.7806895772   -2.2282159109
C        2.4533971824    2.9038766368   -1.9207817825
C        2.0917114132    4.1670361828   -1.5665925222
N        1.7788161745    5.2529136935   -1.2637134824
H       -1.0828227135    2.5953145023    4.5605578634
C       -1.6531170210    2.3826370404    3.6889869925
C       -2.3019562653    2.1298013512    2.7018199765
C       -3.0230774049    1.8188544338    1.5904693736
N       -3.6396666561    1.5411036049    0.6362729926
H       -4.4045432120   -2.6606496897    2.5132192704
C       -4.0188771834   -2.2811322959    1.5981105989
C       -3.5988897465   -1.8522238509    0.5501432887
C       -3.0838676473   -1.4001748205   -0.6260818259
N       -2.6218066071   -1.0400120942   -1.6383334512
H        3.1819435192   -3.7879752510    1.9991126110
C        3.3407223897   -3.2150921369    1.1172583684
C        3.4793280491   -2.5884978171    0.0936059420
C        3.6045461942   -1.8524868839   -1.0418256814
N        3.6948836853   -1.1993021857   -2.0065949137
H       -0.5590077082    0.3346907507   -1.3036438129
C       -0.1057478885    0.3527812785   -0.3406220481
C        0.3382486822    0.3217609484    0.7836660956
C        0.7974462808    0.2889400604    2.0653204587
N        1.1656193533    0.2650114066    3.1754119476
30   
Iteration 14 Energy -1011.88751203
H       -1.1028080885   -3.4030080429   -2.6321767457
C       -0.7081317567   -3.5947591056   -1.6639278642
C       -0.2880290122   -3.8192226130   -0.5536764568
C        0.1869927407   -4.0546928443    0.6984433247
N        0.6115693480   -4.2527772006    1.7702619135
H        3.1473794688    0.8274056820   -2.3663906407
C        2.8264747412    1.8362971664   -2.1966428784
C        2.4903517177    2.9747997467   -1.9638424767
C        2.1235520522    4.2591625805   -1.7038849707
N        1.8088190358    5.3648515338   -1.4864801332
H       -1.0751125385    2.6927650352    4.5842320545
C       -1.6426272912    2.4486937963    3.7190230596
C       -2.2951910325    2.1605864467    2.7440537515
C       -3.0254686260    1.8118275173    1.6498047199
N       -3.6529500340    1.5022655224    0.7125050862
H       -4.6290516719   -2.7048696751    2.4521817642
C       -4.1788729666   -2.3181674243    1.5701331613
C       -3.6950036150   -1.8823432517    0.5530216604
C       -3.1197083074   -1.4338460240   -0.5960317993
N       -2.6129985369   -1.0829026072   -1.5899433249
H        3.2051058191   -3.8936676120    1.9399897884
C        3.3780987022   -3.2738860054    1.0933219899
C        3.5250940006   -2.6076342028    0.0962453986
C        3.6678511150   -1.8241351496   -1.0044014639
N        3.7758898824   -1.1307599538   -1.9387679670
H       -0.5281884346    0.3647370634   -1.3130903269
C       -0.0892181697    0.3747717719   -0.3435513282
C        0.3447233960    0.3317625481    0.7841633100
C        0.7819194990    0.2801999121    2.0727076898
N        1.1265386639    0.2375456015    3.1897197480
30   
Iteration 15 Energy -1011.88928667
H       -1.3649197123   -3.2821247451   -2.3915895710
C       -0.8351587198   -3.6131156385   -1.5316785528
C       -0.2758928049   -3.9965118651   -0.5317038252
C        0.3438905056   -4.4115988692    0.6044603879
N        0.8851355635   -4.7630066594    1.5799881281
H        3.3171624157    1.0093364126   -2.1441359300
C        2.9551892417    2.0194852681   -2.1292288792
C        2.5974713032    3.1747542277   -2.0944243648
C        2.2187987418    4.4816904610   -2.0793025136
N        1.9030316289    5.6082937332   -2.0792282561
H       -1.0503874713    2.9306632484    4.6238276570
C       -1.6242435353    2.6123726449    3.7871148407
C       -2.2928513528    2.2408726044    2.8520638819
C       -3.0507111285    1.8029560687    1.8091884693
N       -3.7068455884    1.4154671119    0.9214244770
H       -5.2119199867   -2.7888868333    2.2564531284
C       -4.6264435294   -2.3925128197    1.4625549691
C       -3.9956783805   -1.9469960119    0.5339106907
C       -3.2807655340   -1.5132788769   -0.5390841511
N       -2.6646445372   -1.1879258044   -1.4782984009
H        3.3088590396   -4.1433995969    1.7710557090
C        3.5211343693   -3.4147320632    1.0258404732
C        3.6764249241   -2.6375710487    0.1138459315
C        3.8417458901   -1.7268478637   -0.8797643384
N        3.9705001817   -0.9260532040   -1.7209308564
H       -0.4663238877    0.3950501029   -1.2938005935
C       -0.0491129424    0.3960660374   -0.3154432072
C        0.3857242957    0.3491154669    0.8112765572
C        0.8031687293    0.2814572917    2.1048982289
N        1.1246624118    0.2179814795    3.2277099728
30   
Iteration 16 Energy -1011.89109216
H       -1.5312626220   -3.1578486377   -2.0831753103
C       -0.9194828984   -3.6507935246   -1.3669612805
C       -0.2650025544   -4.1954104049   -0.5095822509
C        0.4653180963   -4.7884625975    0.4712075377
N        1.0990600427   -5.2874707475    1.3182391037
H        3.4452518417    1.2261642704   -1.9410788420
C        3.0727417047    2.2243337014   -2.0736586262
C        2.7093469126    3.3682143273   -2.2278815797
C        2.3288452466    4.6589860668   -2.4331819520
N        2.0174461391    5.7707655212   -2.6236009059
H       -1.0138349818    3.1356942703    4.6228680982
C       -1.6091274551    2.7482435256    3.8313452779
C       -2.2962528192    2.2987162277    2.9451756754
C       -3.0740689111    1.7739914076    1.9581722428
N       -3.7452803076    1.3086212178    1.1203722825
H       -5.7356049826   -2.8209834245    2.0595768659
C       -5.0596535517   -2.4298012621    1.3382086711
C       -4.3133410416   -1.9859629096    0.4988182502
C       -3.4760830922   -1.5640218220   -0.4861774993
N       -2.7513735110   -1.2543628288   -1.3502173547
H        3.4138297464   -4.3425487307    1.5965346426
C        3.6658601500   -3.5363049137    0.9480163520
C        3.8264073979   -2.6534730172    0.1383152177
C        3.9897128632   -1.6260847616   -0.7350054275
N        4.1069013351   -0.7256251419   -1.4702457693
H       -0.4295251698    0.3936615934   -1.2536059049
C       -0.0211261577    0.3943022102   -0.2715710645
C        0.4237403787    0.3614707676    0.8515327870
C        0.8505031401    0.3035973477    2.1423441036
N        1.1830552383    0.2433925796    3.2622167410
30   
Iteration 17 Energy -1011.89310718
H       -1.5536555024   -3.0285638125   -1.6753008976
C       -0.9305074595   -3.7229861894   -1.1612246980
C       -0.2365341665   -4.4457483155   -0.4856580067
C        0.5630194570   -5.2199154044    0.2949926673
N        1.2627686653   -5.8607296310    0.9792945072
H        3.5616196550    1.4657452417   -1.7660836289
C        3.2052003071    2.4388213688   -2.0441312111
C        2.8426891330    3.5448021510   -2.3762276330
C        2.4582042517    4.7909698682   -2.7696019462
N        2.1452108777    5.8648917064   -3.1137138298
H       -0.9515963036    3.2929306472    4.5610161925
C       -1.5920740005    2.8438467831    3.8404078928
C       -2.3093335551    2.3253013515    3.0181512073
C       -3.1079617019    1.7215766193    2.0949262005
N       -3.7863730499    1.1837040111    1.3080981011
H       -6.2289511064   -2.7925717750    1.8816173546
C       -5.5080330257   -2.4206043465    1.1946292811
C       -4.6837256154   -1.9864438773    0.4265116674
C       -3.7563028982   -1.5638240465   -0.4730162375
N       -2.9444035807   -1.2473729190   -1.2529841130
H        3.5098041364   -4.5000316258    1.3984700923
C        3.7911768416   -3.6310047366    0.8468610372
C        3.9570368262   -2.6397748114    0.1744298054
C        4.0962957833   -1.4965028029   -0.5494288600
N        4.1744860459   -0.4987219802   -1.1528912113
H       -0.4374753611    0.3276000732   -1.1530973896
C       -0.0089454898    0.3491634754   -0.1798417912
C        0.4763159510    0.3683226870    0.9263952245
C        0.9714428222    0.3696695289    2.1936484401
N        1.3776022785    0.3584511101    3.2907518680
30   
Iteration 18 Energy -1011.89434632
H       -1.5155008201   -2.9881269050   -1.6709387965