22   
Iteration 0 Energy -789.07041152
Cl       2.4003168594   -0.6945551477    0.2728198152
O        1.1558409889    1.1072887651   -1.9003090472
N       -1.0398130130   -0.4466098495   -0.0934718875
C       -0.7420784771   -1.0748707282    1.2454116835
C       -0.4373220723   -1.3052302769   -1.1853815301
C       -2.5294862244   -0.4345856352   -0.3132948288
C       -0.5756532190    1.0444441142   -0.0615122951
C        0.0068431159    1.6655625003   -1.3316389254
H       -1.1743005508   -2.0779017043    1.2512603436
H       -1.2011374161   -0.4595500430    2.0216443178
H        0.3522331825   -1.1092249685    1.3409938009
H       -0.9639310934   -2.2618608660   -1.1578797769
H       -0.5879626017   -0.8129615899   -2.1445851122
H        0.6260133671   -1.4387705596   -0.9577226741
H       -3.0083667499    0.1011706880    0.5079087662
H       -2.8931502277   -1.4623724302   -0.3465499675
H       -2.7379669799    0.0651094139   -1.2610949473
H       -1.4394233311    1.6202519320    0.2752736512
H        0.2100658110    1.0568566670    0.6973171798
H        0.2035192811    2.7084804104   -1.0239222497
H       -0.7855103451    1.7275220995   -2.1023937874
H        1.4796179173    0.3264526731   -1.3834690142
22   
Iteration 1 Energy -789.06662475
Cl       2.4011642842   -0.6947630447    0.2727625601
O        1.1140626055    1.0592473661   -1.9235949990
N       -1.0387278480   -0.4416314578   -0.0930126588
C       -0.7415163523   -1.0668211769    1.2479917279
C       -0.4215943575   -1.2944844367   -1.1819538454
C       -2.5277850858   -0.4446411959   -0.3206966920
C       -0.5894374869    1.0543731445   -0.0589502307
C        0.0147947342    1.6773132444   -1.3185584406
H       -1.1638311447   -2.0744705047    1.2519105804
H       -1.2107983202   -0.4557205483    2.0219494636
H        0.3529503210   -1.0902926739    1.3491777579
H       -0.9389049320   -2.2566732649   -1.1572440463
H       -0.5720208335   -0.8035902246   -2.1423044282
H        0.6421614930   -1.4173834445   -0.9484170512
H       -3.0165381997    0.0863217149    0.4982917927
H       -2.8809714001   -1.4763949604   -0.3559192950
H       -2.7364062294    0.0531934413   -1.2698665885
H       -1.4474142598    1.6370126046    0.2820397275
H        0.1948283567    1.0517968729    0.7020133291
H        0.2555595755    2.7089844081   -1.0029931193
H       -0.7825899639    1.7763635563   -2.0807165216
H        1.4058996322    0.2556949883   -1.4220945473
22   
Iteration 2 Energy -789.06389905
Cl       2.4027430809   -0.6965680182    0.2767898998
O        1.1050328784    1.1152893971   -1.9658766082
N       -1.0351280126   -0.4506002819   -0.1007826013
C       -0.7409709381   -1.0587936166    1.2488056875
C       -0.4294120031   -1.3295901645   -1.1755877576
C       -2.5243268291   -0.4560390624   -0.3287238804
C       -0.5976699422    1.0531801850   -0.0750304607
C        0.0250211905    1.7164788845   -1.3099993034
H       -1.1652647989   -2.0654655798    1.2642755530
H       -1.2109987898   -0.4372138911    2.0139878102
H        0.3533783009   -1.0840952881    1.3523590431
H       -0.9580426487   -2.2848709730   -1.1278304024
H       -0.5782860356   -0.8585549927   -2.1457507618
H        0.6328610380   -1.4644423784   -0.9403414478
H       -3.0129714488    0.0858432891    0.4831696168
H       -2.8784166680   -1.4878614920   -0.3510707739
H       -2.7319455728    0.0297902839   -1.2843252349
H       -1.4603908240    1.6268857247    0.2683728638
H        0.1796734250    1.0480668645    0.6936443519
H        0.2871568192    2.7260021352   -0.9460821758
H       -0.7732528537    1.8694840154   -2.0627338231
H        1.3925193240    0.2826088378   -1.5180018777
22   
Iteration 3 Energy -789.06208702
Cl       2.3947423215   -0.6937190444    0.2716937047
O        1.1173767032    1.1044996509   -1.9635254109
N       -1.0289860022   -0.4548844260   -0.0977568510
C       -0.7328274809   -1.0547674298    1.2549111484
C       -0.4207786959   -1.3359395390   -1.1691290106
C       -2.5199141514   -0.4671330215   -0.3268918873
C       -0.5998746775    1.0505021024   -0.0771161581
C        0.0464631275    1.7165344159   -1.3005677795
H       -1.1534284836   -2.0629080517    1.2737377227
H       -1.2051504203   -0.4317873412    2.0173712185
H        0.3623661873   -1.0759496484    1.3562584311
H       -0.9449764750   -2.2934089231   -1.1171807314
H       -0.5751230998   -0.8684104396   -2.1406478466
H        0.6431288348   -1.4647345671   -0.9325114162
H       -3.0111998450    0.0763893107    0.4823311195
H       -2.8720665926   -1.4997054427   -0.3449866104
H       -2.7294532000    0.0142471081   -1.2843786698
H       -1.4714444470    1.6196203662    0.2498438738
H        0.1649225103    1.0576453417    0.7047944641
H        0.3425112103    2.7030270428   -0.9041244982
H       -0.7417471436    1.9206062769   -2.0522576100
H        1.3767837149    0.2628305889   -1.5286755824
22   
Iteration 4 Energy -789.06079787
Cl       2.3942704429   -0.6928100890    0.2718579096
O        1.1128291815    1.0903739081   -1.9767468262
N       -1.0299836273   -0.4559266585   -0.0943761691
C       -0.7327360779   -1.0558459324    1.2587027734
C       -0.4181691020   -1.3295014810   -1.1697036563
C       -2.5218337998   -0.4734378510   -0.3224830903
C       -0.6025162563    1.0486828303   -0.0795854228
C        0.0536749517    1.7122355827   -1.3024450636
H       -1.1508262203   -2.0651908710    1.2776064290
H       -1.2073450881   -0.4343461441    2.0207817462
H        0.3628002734   -1.0745088661    1.3596234940
H       -0.9341895529   -2.2915052374   -1.1219244618
H       -0.5792490060   -0.8579141491   -2.1386076880
H        0.6480128990   -1.4489610101   -0.9344694656
H       -3.0148129717    0.0680197808    0.4870724163
H       -2.8693015637   -1.5075770998   -0.3402367677
H       -2.7325296577    0.0072940480   -1.2800703838
H       -1.4845851414    1.6153265786    0.2217959320
H        0.1458245010    1.0740992779    0.7169094868
H        0.3825669573    2.6793571794   -0.8831967446
H       -0.7279293289    1.9558030048   -2.0467531532
H        1.3567896975    0.2407084293   -1.5558437949
22   
Iteration 5 Energy -789.05985421
Cl       2.3928623042   -0.6927310505    0.2731176243
O        1.1169740505    1.0916059719   -1.9824899939
N       -1.0306716234   -0.4564615754   -0.0955371909
C       -0.7266767232   -1.0551012440    1.2563213238
C       -0.4198629086   -1.3293060087   -1.1716425902
C       -2.5232756068   -0.4774617667   -0.3187159356
C       -0.6038469472    1.0480540875   -0.0834350041
C        0.0622916290    1.7144771100   -1.3013844751
H       -1.1425619620   -2.0653206913    1.2766951189
H       -1.2003124113   -0.4341363855    2.0194655602
H        0.3694090153   -1.0708420432    1.3527692244
H       -0.9316372960   -2.2933900751   -1.1209619957
H       -0.5867610118   -0.8599340409   -2.1406335867
H        0.6477106057   -1.4443280308   -0.9386491467
H       -3.0144200665    0.0635019929    0.4922810679
H       -2.8677351262   -1.5126142459   -0.3341359812
H       -2.7388128495    0.0016104584   -1.2760553831
H       -1.4926314280    1.6144190461    0.1996661185
H        0.1309331946    1.0799781552    0.7240586914
H        0.4024225978    2.6732687099   -0.8709064841
H       -0.7148822853    1.9732915492   -2.0433438552
H        1.3504091732    0.2342145533   -1.5737699865
22   
Iteration 6 Energy -789.05922742
Cl       2.3933802640   -0.6941883125    0.2747321111
O        1.1233656282    1.0953364333   -1.9843735721
N       -1.0333404502   -0.4548216616   -0.0968375898
C       -0.7221055358   -1.0552619672    1.2529451274
C       -0.4237439037   -1.3253415124   -1.1754698414
C       -2.5262271272   -0.4791572275   -0.3125520064
C       -0.6077037602    1.0506367619   -0.0874806981
C        0.0685909140    1.7169514888   -1.3015045261
H       -1.1352729930   -2.0666041561    1.2728511937
H       -1.1948984423   -0.4372479340    2.0190735813
H        0.3746431166   -1.0680174459    1.3455940527
H       -0.9307364120   -2.2918037160   -1.1226209097
H       -0.5969849531   -0.8576586667   -2.1442060977
H        0.6450693987   -1.4370178796   -0.9461551963
H       -3.0139580600    0.0605512156    0.5013418336
H       -2.8678437353   -1.5152695130   -0.3261161857
H       -2.7481221904   -0.0007416041   -1.2687638010
H       -1.5024635246    1.6179682463    0.1755134165
H        0.1126905276    1.0894773018    0.7313370929
H        0.4097666532    2.6744271973   -0.8688357961
H       -0.7069776833    1.9769252614   -2.0440355584
H        1.3514374159    0.2327974393   -1.5840132864
22   
Iteration 7 Energy -789.05880984
Cl       2.3942507317   -0.6972018389    0.2750832033
O        1.1326761887    1.1007163867   -1.9778748543
N       -1.0357263898   -0.4515986085   -0.0975824426
C       -0.7168808038   -1.0529270299    1.2503825008
C       -0.4277506142   -1.3195660983   -1.1789914132
C       -2.5290177628   -0.4803619820   -0.3057038826
C       -0.6144791373    1.0556979088   -0.0914737624
C        0.0730559621    1.7203025804   -1.3010259035
H       -1.1261382923   -2.0658555533    1.2697278806
H       -1.1897487676   -0.4380697197    2.0190439207
H        0.3804231726   -1.0616086573    1.3392750116
H       -0.9311293444   -2.2878699623   -1.1242323286
H       -0.6066023511   -0.8525635822   -2.1470646654
H        0.6418968347   -1.4292628225   -0.9533440475
H       -3.0140807258    0.0581891878    0.5105501432
H       -2.8676643575   -1.5174976218   -0.3169867355
H       -2.7577496282   -0.0031892468   -1.2609672060
H       -1.5141248900    1.6227843036    0.1548929694
H        0.0933431169    1.1008893611    0.7375926603
H        0.4084657185    2.6797549462   -0.8689912226
H       -0.6994684453    1.9755459619   -2.0488166208
H        1.3576055581    0.2359023806   -1.5800918142
22   
Iteration 8 Energy -789.05857068
Cl       2.3972463465   -0.7057962502    0.2732505146
O        1.1561488766    1.1132138395   -1.9502597352
N       -1.0416879112   -0.4424849014   -0.0971140258
C       -0.7075311909   -1.0446095554    1.2474597621
C       -0.4366201451   -1.3039410751   -1.1852413976
C       -2.5359853404   -0.4820351676   -0.2900902110
C       -0.6325473161    1.0693685521   -0.0987843492
C        0.0786555297    1.7273417776   -1.2990858816
H       -1.1072215310   -2.0613300378    1.2656492396
H       -1.1818453328   -0.4366561721    2.0207355708
H        0.3907022797   -1.0440476424    1.3293554615
H       -0.9343351798   -2.2752300388   -1.1298810975
H       -0.6242216126   -0.8353682642   -2.1509320663
H        0.6341628700   -1.4120473988   -0.9667092858
H       -3.0165043325    0.0542687719    0.5303425505
H       -2.8677605460   -1.5214890881   -0.2961360578
H       -2.7787544854   -0.0082760151   -1.2436720010
H       -1.5412851792    1.6343083602    0.1162069816
H        0.0510784005    1.1296329890    0.7493432864
H        0.3922448377    2.6966045916   -0.8738125490
H       -0.6846730136    1.9627751311   -2.0640633534
H        1.3819774383    0.2498962482   -1.5465064021
22   
Iteration 9 Energy -789.05842025
Cl       2.3980475533   -0.7087875057    0.2694375160
O        1.1620019474    1.1113660221   -1.9331739941
N       -1.0430123471   -0.4391522064   -0.0942248589
C       -0.7074635643   -1.0377777226    1.2512866645
C       -0.4352701699   -1.2985757047   -1.1827001687
C       -2.5378499077   -0.4842757387   -0.2881177301
C       -0.6406249793    1.0740215211   -0.0986163156
C        0.0787782523    1.7283492067   -1.2955264903
H       -1.1030477669   -2.0560851395    1.2706276150
H       -1.1844318150   -0.4305639837    2.0234119231
H        0.3907141944   -1.0337946350    1.3332720280
H       -0.9330272508   -2.2700075088   -1.1308033181
H       -0.6208191142   -0.8271911507   -2.1474624969
H        0.6352802550   -1.4065581390   -0.9630589644
H       -3.0207692160    0.0520238330    0.5309376505
H       -2.8663271835   -1.5247674743   -0.2922606990
H       -2.7814593881   -0.0130595165   -1.2427243329
H       -1.5514654236    1.6366388190    0.1124900852
H        0.0393165532    1.1397121969    0.7524633793
H        0.3894838301    2.6974894274   -0.8672683889
H       -0.6764076329    1.9654889727   -2.0680596235
H        1.3835724337    0.2494301695   -1.5236145980
22   
Iteration 10 Energy -789.05838448
Cl       2.4048704503   -0.7265181788    0.2572969744
O        1.1892753874    1.1507658583   -1.8745309517
N       -1.0497472386   -0.4261691899   -0.0862643818
C       -0.7069800326   -1.0058952529    1.2646066943
C       -0.4392508227   -1.2868521137   -1.1733176655
C       -2.5469062781   -0.4930172136   -0.2790322188
C       -0.6766149851    1.0942304490   -0.1074494266
C        0.0722796676    1.7501553272   -1.2855937330
H       -1.0878344034   -2.0296201380    1.2939766691
H       -1.1925696001   -0.3977746446    2.0303349021
H        0.3908738095   -0.9908017570    1.3458173165
H       -0.9450025848   -2.2544325259   -1.1290484718
H       -0.6138373503   -0.8084013223   -2.1366280104
H        0.6294604072   -1.4034101982   -0.9498473889
H       -3.0366272484    0.0483390891    0.5327385290
H       -2.8627386021   -1.5372817116   -0.2689799134
H       -2.7951038412   -0.0371722163   -1.2397974776
H       -1.6000604781    1.6411545573    0.0851832952
H       -0.0163910354    1.1866448934    0.7580414486
H        0.3544991917    2.7217903263   -0.8405241788
H       -0.6527416841    1.9870133872   -2.0864317971
H        1.4199085108    0.2957896719   -1.4514246780
22   
Iteration 11 Energy -789.05844792
Cl       2.4112403449   -0.7419052585    0.2514326183
O        1.2025124747    1.1695106783   -1.8312236901
N       -1.0580638713   -0.4109767558   -0.0818911362
C       -0.7028454512   -0.9820080709    1.2687283135
C       -0.4416048056   -1.2633796496   -1.1729095367
C       -2.5560453434   -0.4987750085   -0.2684949505
C       -0.7053253326    1.1136781315   -0.1136847287
C        0.0650864864    1.7637832470   -1.2813525918
H       -1.0690376269   -2.0109809349    1.3027089486
H       -1.1943620261   -0.3785959708    2.0344029138
H        0.3948628160   -0.9547653918    1.3463222992
H       -0.9468799726   -2.2315298147   -1.1395769701
H       -0.6110475906   -0.7759778649   -2.1326253710
H        0.6266923400   -1.3797311090   -0.9478596257
H       -3.0500059603    0.0416514019    0.5413657703
H       -2.8573674226   -1.5471056577   -0.2499442076
H       -2.8128494903   -0.0529311864   -1.2315979986
H       -1.6380126361    1.6525712577    0.0544301256
H       -0.0666284310    1.2258299810    0.7657485007
H        0.3233389404    2.7447848692   -0.8400055876
H       -0.6407969536    1.9836996690   -2.1034072960
H        1.4385027822    0.3194321181   -1.3941532970
22   
Iteration 12 Energy -789.05856199
Cl       2.4145649396   -0.7458616567    0.2546083672
O        1.2056697128    1.1740399935   -1.8258370207
N       -1.0643425890   -0.4054529198   -0.0853581622
C       -0.6981979600   -0.9793194621    1.2613425354
C       -0.4476906405   -1.2526042530   -1.1806007363
C       -2.5615268987   -0.4989729697   -0.2623754136
C       -0.7131902571    1.1198776308   -0.1173778882
C        0.0644256333    1.7672616401   -1.2823101944
H       -1.0599153472   -2.0098545684    1.2945248655
H       -1.1879982553   -0.3803789146    2.0318492471
H        0.3999222906   -0.9477446317    1.3337950324
H       -0.9487570271   -2.2229102809   -1.1486572536
H       -0.6211299438   -0.7642905410   -2.1390845179
H        0.6214677653   -1.3660966752   -0.9582555039
H       -3.0520777271    0.0393717807    0.5509116025
H       -2.8572785189   -1.5488343594   -0.2416413344
H       -2.8269995720   -0.0549024855   -1.2239552820
H       -1.6486893066    1.6602274930    0.0325883692
H       -0.0877761409    1.2348898350    0.7703932826
H        0.3122102569    2.7563611314   -0.8540157678
H       -0.6420862405    1.9676227641   -2.1089850582
H        1.4442672247    0.3229780714   -1.3886616433
22   
Iteration 13 Energy -789.05887570
Cl       2.4220253194   -0.7602508687    0.2556944035
O        1.2421565678    1.1910505039   -1.7644204890
N       -1.0824027536   -0.3869028309   -0.0915264047
C       -0.6787222573   -0.9637841886    1.2441265360
C       -0.4659202684   -1.2186446721   -1.1993950025
C       -2.5774918107   -0.5026893237   -0.2358885229
C       -0.7481460407    1.1426277677   -0.1322599216
C        0.0725545475    1.7762235171   -1.2756979534
H       -1.0217745584   -2.0006027126    1.2758187498
H       -1.1646463642   -0.3796441864    2.0286875921
H        0.4207573168   -0.9147989954    1.2980536036
H       -0.9535856319   -2.1957381275   -1.1698294896
H       -0.6551505469   -0.7280204407   -2.1537800287
H        0.6059300247   -1.3242081243   -0.9880642840
H       -3.0570129448    0.0329715171    0.5857394039
H       -2.8559476566   -1.5569308422   -0.2021325675
H       -2.8734751740   -0.0696323049   -1.1936955343
H       -1.6958366377    1.6788273937   -0.0562940376
H       -0.1802944357    1.2818972076    0.7884928218
H        0.2771166166    2.7879258677   -0.8830280429
H       -0.6153521802    1.9164399180   -2.1318333799
H        1.4808825261    0.3470746995   -1.3075907111
22   
Iteration 14 Energy -789.05947159
Cl       2.4464173640   -0.8050447556    0.2555771682
O        1.3160893562    1.2935269926   -1.6069997683
N       -1.1246646524   -0.3422344906   -0.1041951689
C       -0.6381150612   -0.9082667444    1.2111122711
C       -0.5174662662   -1.1483696962   -1.2378145478
C       -2.6128595580   -0.5143363108   -0.1717517965
C       -0.8463022602    1.1990759522   -0.1816114322
C        0.0741943166    1.8215727794   -1.2571656772
H       -0.9346316828   -1.9590257206    1.2469794229
H       -1.1188604042   -0.3518877358    2.0191606582
H        0.4614508048   -0.8175411234    1.2265351635
H       -0.9806227085   -2.1373627545   -1.2069984882
H       -0.7435574996   -0.6558333850   -2.1832594100
H        0.5594367464   -1.2415945598   -1.0575323344
H       -3.0698348063    0.0259818119    0.6597508034
H       -2.8485441203   -1.5769045531   -0.0958403047
H       -2.9761592604   -0.1211481397   -1.1238013304
H       -1.8115706728    1.7001606238   -0.2815758713
H       -0.4314687544    1.4074565194    0.8038923578
H        0.1672075846    2.8706120045   -0.9329581463
H       -0.5443265972    1.8396045076   -2.1789135946
H        1.5820107312    0.4706271134   -1.1090685709
22   
Iteration 15 Energy -789.05770601
Cl       2.5013219789   -0.9003950821    0.2390517770
O        1.3922540146    1.4812047465   -1.1435395355
N       -1.2176670719   -0.2453028947   -0.1276076463
C       -0.5609035595   -0.7508830024    1.1418999007
C       -0.6277875107   -0.9942902079   -1.3116827426
C       -2.6755843452   -0.5383117922   -0.0359632627
C       -1.0637292421    1.3016774016   -0.2985078315
C        0.0688642313    1.8979551625   -1.1714184531
H       -0.7466818026   -1.8254554718    1.1949715014
H       -1.0298170206   -0.2434354657    1.9887764480
H        0.5274812277   -0.5664514634    1.0761707750
H       -1.0275698150   -2.0107429308   -1.2859487871
H       -0.9357893259   -0.4975149059   -2.2321380384
H        0.4583432479   -1.0391882950   -1.1993343085
H       -3.0950023960    0.0260319636    0.7997580324
H       -2.8067648905   -1.6074671562    0.1393446709
H       -3.1695216089   -0.2553711264   -0.9684251587
H       -1.9709366146    1.6825011421   -0.7744122658
H       -1.0272356660    1.6451574259    0.7338576001
H       -0.0228913140    2.9854114893   -1.0385258471
H       -0.3138125333    1.6809646527   -2.1962860432
H        1.6531600652    0.7299802108   -0.5060116641
22   
Iteration 16 Energy -789.06004757
Cl       2.4747557723   -0.8537997407    0.2442314960
O        1.3690210341    1.3699796897   -1.3720584961
N       -1.1735331876   -0.2906208523   -0.1119831878
C       -0.6009988208   -0.8279817537    1.1825759805
C       -0.5698229223   -1.0615486907   -1.2731351725
C       -2.6501786503   -0.5285876996   -0.1020717795
C       -0.9606906780    1.2548158451   -0.2347644425
C        0.0744084847    1.8529475025   -1.2174173174
H       -0.8380121109   -1.8931346278    1.2260895017
H       -1.0806980594   -0.2991902720    2.0097372975
H        0.4941548272   -0.6865721656    1.1595272974
H       -0.9971583647   -2.0667722058   -1.2494375667
H       -0.8382792861   -0.5625614587   -2.2044368646
H        0.5127743654   -1.1255859389   -1.1267298599
H       -3.0903870665    0.0207044068    0.7328179984
H       -2.8330319547   -1.5971143173    0.0226908553
H       -3.0800754843   -0.1881805990   -1.0467954107
H       -1.9144541611    1.7002069519   -0.5264971109
H       -0.7308453265    1.5390273919    0.7915964490
H        0.0697938276    2.9277415858   -0.9781094601
H       -0.4290667985    1.7588040160   -2.2051049695
H        1.6333788879    0.5815907261   -0.8002904392
22   
Iteration 17 Energy -789.06104166
Cl       2.4817248939   -0.8656672057    0.2370600991
O        1.3555298867    1.3739356107   -1.3456226661
N       -1.1774738978   -0.2828642407   -0.1100401478
C       -0.6048403249   -0.7944357655    1.1930925101
C       -0.5667166997   -1.0483481622   -1.2693683454
C       -2.6580074733   -0.5321258718   -0.1013106900
C       -0.9804816573    1.2550214119   -0.2376449127
C        0.0595674148    1.8522007016   -1.2136282758
H       -0.8245237179   -1.8625289109    1.2483988465
H       -1.0993258607   -0.2617839448    2.0087767188
H        0.4875289606   -0.6445090868    1.1790270640
H       -0.9803381496   -2.0593040888   -1.2477157464
H       -0.8431980709   -0.5477611477   -2.1976178012
H        0.5183203717   -1.0882650389   -1.1264401311
H       -3.1067616034    0.0262996699    0.7229865657
H       -2.8356403498   -1.5998421280    0.0377340236
H       -3.0844786022   -0.2063669332   -1.0525196200
H       -1.9438963204    1.6780862543   -0.5288503099
H       -0.7619238903    1.5527426030    0.7907967890
H        0.0526570932    2.9216070888   -0.9383785032
H       -0.4190645657    1.8047027368   -2.2149407813
H        1.6330145379    0.5907235264   -0.7699319102
22   
Iteration 18 Energy -789.06131350
Cl       2.4843294980   -0.8844257458    0.2285010830
O        1.3561013221    1.4240613409   -1.2840551535
N       -1.1784894681   -0.2716503564   -0.1115026333
C       -0.5948023315   -0.7538250052    1.1959999336
C       -0.5700390309   -1.0432898838   -1.2656552946
C       -2.6585815035   -0.5442370765   -0.0916597262
C       -1.0025905288    1.2655950644   -0.2537807658
C        0.0510815330    1.8784467719   -1.2012168288
H       -0.7878132145   -1.8261147932    1.2693795855
H       -1.0993647109   -0.2195781512    2.0042151864
H        0.4935846714   -0.5897917508    1.1774017353
H       -0.9733127565   -2.0574222094   -1.2297933836
H       -0.8602413583   -0.5521853097   -2.1950706591
H        0.5174098574   -1.0675081327   -1.1355354381
H       -3.1139100200    0.0300687105    0.7178275571
H       -2.8179252595   -1.6107688280    0.0761433712
H       -3.0879647250   -0.2493297595   -1.0513679112
H       -1.9695047330    1.6608033630   -0.5722553793
H       -0.8193082369    1.5961357021    0.7723175628
H        0.0209963690    2.9439294518   -0.8976132532
H       -0.3872894148    1.8572562305   -2.2184278708
H        1.6472140899    0.6505182178   -0.6988086221
22   
Iteration 19 Energy -789.06128685
Cl       2.4725375460   -0.8684916363    0.2249017854
O        1.3536978686    1.3789110907   -1.3350990042
N       -1.1633784154   -0.2844395570   -0.1022153657
C       -0.6081318365   -0.7779914087    1.2132691459
C       -0.5484503370   -1.0609944314   -1.2488363643
C       -2.6475807647   -0.5426318300   -0.1105833188
C       -0.9681068205    1.2524401107   -0.2310153992
C        0.0609775596    1.8605403395   -1.2071931566
H       -0.8128351603   -1.8486785315    1.2810128450
H       -1.1184101268   -0.2406878212    2.0155551687
H        0.4817267766   -0.6245515277    1.2095513816
H       -0.9593147166   -2.0718743729   -1.2143449943
H       -0.8246564356   -0.5690443089   -2.1822952436
H        0.5376794761   -1.0931824248   -1.1060362687
H       -3.1121591232    0.0301330468    0.6945213390
H       -2.8183310534   -1.6088574744    0.0464466805
H       -3.0546716271   -0.2365972293   -1.0764855824
H       -1.9416409373    1.6666136085   -0.5020875395
H       -0.7345386765    1.5696446879    0.7883946476
H        0.0661292762    2.9191933297   -0.8765280198
H       -0.4064842563    1.8725922741   -2.2102400671
H        1.6313609790    0.5959598321   -0.7636635827
22   
Iteration 20 Energy -789.06135996
Cl       2.4783453481   -0.8781029007    0.2257302922
O        1.3549592448    1.4044175956   -1.3142415778
N       -1.1707229813   -0.2756882530   -0.1038868614
C       -0.6033729272   -0.7666342110    1.2081729317
C       -0.5554401110   -1.0464762252   -1.2549229872
C       -2.6523014242   -0.5414799089   -0.1006345701
C       -0.9857679870    1.2611982535   -0.2393984879
C        0.0552297886    1.8710538769   -1.2040697826
H       -0.8003083794   -1.8388444026    1.2737253152
H       -1.1140994547   -0.2351584885    2.0141284888
H        0.4858368953   -0.6055434581    1.2007191903
H       -0.9607732147   -2.0598314208   -1.2224233072
H       -0.8368888056   -0.5540372135   -2.1865234719
H        0.5310123480   -1.0757856725   -1.1155197835
H       -3.1141960407    0.0333674318    0.7045857625
H       -2.8162368332   -1.6075602040    0.0640359726
H       -3.0693340333   -0.2439213361   -1.0649869564
H       -1.9555893073    1.6652425696   -0.5380487437
H       -0.7810313791    1.5834787871    0.7844390723
H        0.0424408450    2.9340831813   -0.8912608748
H       -0.4013488638    1.8597544804   -2.2131002265
H        1.6388504033    0.6266985238   -0.7360604729
22   
Iteration 21 Energy -789.06136263
Cl       2.4779256932   -0.8801679402    0.2245728285
O        1.3591334161    1.4100750403   -1.3019301080
N       -1.1713598846   -0.2740073971   -0.1043357085
C       -0.5999974340   -0.7620134181    1.2069828193
C       -0.5569056615   -1.0447491575   -1.2557882198
C       -2.6523629056   -0.5427701627   -0.0981130612
C       -0.9886192519    1.2627878248   -0.2411420425
C        0.0573151076    1.8736500033   -1.2001066288
H       -0.7918891359   -1.8350311170    1.2729633986
H       -1.1122255651   -0.2322160000    2.0131599352
H        0.4884083978   -0.5965858548    1.1976737289
H       -0.9606877177   -2.0587763111   -1.2220483165
H       -0.8405743916   -0.5531049654   -2.1870257751
H        0.5298458729   -1.0731740808   -1.1175946226
H       -3.1148318802    0.0354288721    0.7043793469
H       -2.8141131975   -1.6083056006    0.0723905820
H       -3.0708988355   -0.2514196038   -1.0636881784
H       -1.9570407822    1.6641996280   -0.5479525299
H       -0.7924705536    1.5876973385    0.7836305231
H        0.0399676250    2.9370747305   -0.8892397535
H       -0.3937777937    1.8591590221   -2.2115208585
H        1.6428150856    0.6337810324   -0.7216592305
22   
Iteration 22 Energy -789.06136432
Cl       2.4773655136   -0.8813245478    0.2238519231
O        1.3594143442    1.4128856984   -1.3015100770
N       -1.1706129065   -0.2731386829   -0.1037810064
C       -0.5998193500   -0.7608391985    1.2079860322
C       -0.5555316497   -1.0435980778   -1.2550350468
C       -2.6514305288   -0.5426787193   -0.0984327979
C       -0.9881486869    1.2636430766   -0.2399013087
C        0.0572492694    1.8758530743   -1.1988112784
H       -0.7879319255   -1.8345885204    1.2725341127
H       -1.1152194645   -0.2335160845    2.0137823420
H        0.4879355887   -0.5921833651    1.2003215744
H       -0.9585389163   -2.0579725263   -1.2209275031
H       -0.8394229389   -0.5522529875   -2.1862956939
H        0.5313018422   -1.0717740947   -1.1161374374
H       -3.1155804088    0.0389319059    0.7006085439
H       -2.8127486018   -1.6075442052    0.0766835115
H       -3.0683313792   -0.2560669361   -1.0661239004
H       -1.9565318952    1.6646894843   -0.5474137141
H       -0.7927614835    1.5889357746    0.7848810850
H        0.0400466687    2.9387630596   -0.8865556985
H       -0.3940658697    1.8619293097   -2.2099841240
H        1.6422224747    0.6365106423   -0.7217133620
22   
Iteration 23 Energy -789.06136464
Cl       2.4766034750   -0.8816280237    0.2234364425
O        1.3602096803    1.4129627987   -1.3022191905
N       -1.1698172751   -0.2727854553   -0.1033718458
C       -0.6000186791   -0.7613460951    1.2086657851
C       -0.5543674272   -1.0427441497   -1.2548198289
C       -2.6506405185   -0.5418918708   -0.0990375393
C       -0.9868019017    1.2638463149   -0.2383116804
C        0.0580389096    1.8764448186   -1.1977079631
H       -0.7846976134   -1.8358169622    1.2707829684
H       -1.1186645603   -0.2371813264    2.0144553706
H        0.4871861080   -0.5897371594    1.2033711678
H       -0.9573615252   -2.0571234899   -1.2208858006
H       -0.8381782538   -0.5511269748   -2.1859550988
H        0.5324789634   -1.0713183552   -1.1155220177
H       -3.1160128584    0.0431632423    0.6967622317
H       -2.8122729632   -1.6059862846    0.0804284222
H       -3.0659793257   -0.2594117736   -1.0686345369
H       -1.9551761489    1.6655216278   -0.5451731838
H       -0.7907742185    1.5884045245    0.7865274619
H        0.0419166474    2.9390121175   -0.8845897706
H       -0.3941263058    1.8632666402   -2.2084574477
H        1.6425564103    0.6362094390   -0.7234081987
22   
Iteration 24 Energy -789.06136421
Cl       2.4766790936   -0.8817814953    0.2237150965
O        1.3601177454    1.4125753076   -1.3022832506
N       -1.1699129343   -0.2725435420   -0.1037814473
C       -0.6000758317   -0.7617672677    1.2079628260
C       -0.5548322909   -1.0422973645   -1.2555494551
C       -2.6507893908   -0.5413020130   -0.0992647772
C       -0.9865843489    1.2640801360   -0.2381693578
C        0.0582083265    1.8766186560   -1.1975309153
H       -0.7832756916   -1.8365695467    1.2687558894