30   
Iteration 0 Energy -1011.84502798
H       -0.5218254006   -2.8120591031   -2.8010627824
C       -0.4608458040   -2.9660075929   -1.7514139881
C       -0.3918688832   -3.1409490586   -0.5588130248
C       -0.3128953072   -3.3378831657    0.7867367629
N       -0.2459177175   -3.5068266383    1.9413504366
H        2.9540116067    0.7237578353   -2.6970975685
C        2.5341520890    1.4215243671   -2.0153256850
C        2.0563119712    2.2142591231   -1.2405849083
C        1.5174922568    3.1089597620   -0.3658775797
N        1.0556467874    3.8767028801    0.3838715590
H       -0.5778066696    1.4175257050    3.7147570662
C       -1.2865695221    1.3895350705    2.9230219756
C       -2.0913002644    1.3575457739    2.0233230091
C       -2.9989965550    1.3215578152    1.0096621735
N       -3.7777359938    1.2905681842    0.1389535070
H       -2.6151249960   -1.7614106433    2.5191571062
C       -2.7210895409   -1.6764390743    1.4655096499
C       -2.8420490686   -1.5794715190    0.2679103589
C       -2.9780035791   -1.4705079775   -1.0826377564
N       -3.0949644448   -1.3775390843   -2.2412500921
H        2.3752052716   -2.1372848782    2.4391838648
C        2.3772046026   -2.1512801955    1.3775390843
C        2.3782042681   -2.1672748438    0.1699431381
C        2.3792039337   -2.1852688231   -1.1916012979
N        2.3812032647   -2.2002638059   -2.3602102888
H       -0.3918688832   -0.0049983276   -0.7007655284
C        0.2609127003    0.2269240727    0.1049648794
C        1.0026645149    0.4908357695    1.0206584942
C        1.8383848882    0.7877364285    2.0543126402
N        2.5551450649    1.0436508011    2.9400162894
30   
Iteration 1 Energy -1011.85094451
H       -0.5201555261   -2.8112512031   -2.7916393017
C       -0.4754762468   -2.9991486697   -1.7445937395
C       -0.4094050318   -3.1938401596   -0.5536196181
C       -0.3318325893   -3.3866305658    0.7902908337
N       -0.2603452365   -3.5206783601    1.9495905633
H        2.9468466615    0.7061127083   -2.6920278844
C        2.5526926377    1.4476659962   -2.0384181849
C        2.0739544401    2.2485304543   -1.2706127716
C        1.5291870509    3.1319578044   -0.3872594313
N        1.0611015478    3.8784212741    0.3821171175
H       -0.5722364381    1.4255166157    3.7100957453
C       -1.3186457600    1.3973621543    2.9521735236
C       -2.1264941344    1.3848407270    2.0540626285
C       -3.0006922639    1.3809716231    1.0106888242
N       -3.7783982337    1.3182387341    0.1390413009
H       -2.6079029995   -1.7700709797    2.5149800445
C       -2.7474996954   -1.7001996061    1.4635202553
C       -2.8862067329   -1.6133273607    0.2667856613
C       -3.0288810442   -1.4461152222   -1.0766305874
N       -3.0869890563   -1.3743396878   -2.2434415038
H        2.3691751801   -2.1438254283    2.4330630447
C        2.4437204818   -2.1852251050    1.3715604401
C        2.4710373185   -2.1927211357    0.1641658741
C        2.4330224480   -2.1717545011   -1.1950230719
N        2.4093973079   -2.1685974589   -2.3651647557
H       -0.3932275286   -0.0007751384   -0.7033530955
C        0.2475141188    0.2286875763    0.1126128794
C        0.9840213248    0.4847529574    1.0326123649
C        1.8366892244    0.8027024807    2.0433237930
N        2.5430287718    1.0337394752    2.9480990497
30   
Iteration 2 Energy -1011.85047338
H       -0.5199838533   -2.8138921072   -2.7497976483
C       -0.5135048065   -3.1097719878   -1.7183120458
C       -0.4722957336   -3.3962482781   -0.5386407247
C       -0.3858143053   -3.5305424695    0.8060639616
N       -0.3098587471   -3.5840665758    1.9735825545
H        2.9211472601    0.6575458653   -2.6717354979
C        2.6035286793    1.5221295555   -2.1142703226
C        2.1383881660    2.3714734949   -1.3805864716
C        1.5764800368    3.2124660250   -0.4627787158
N        1.0816567343    3.8827297894    0.3665093241
H       -0.5714461123    1.4458779015    3.6978236292
C       -1.4286425414    1.4254288083    3.0523963888
C       -2.2011178261    1.5467771228    2.1230881503
C       -3.0732004089    1.4957688955    1.0786753086
N       -3.7454510815    1.4629149677    0.1154876276
H       -2.5841838435   -1.8087066886    2.4902329899
C       -2.8318897537   -1.8080650412    1.4499319081
C       -3.1010275703   -1.6042159058    0.2826691218
C       -3.1299399820   -1.5057619701   -1.0754668584
N       -3.0939075293   -1.2989882569   -2.2357095413
H        2.3693053955   -2.1830826841    2.3936273759
C        2.6699702210   -2.2949516749    1.3561035235
C        2.7416531802   -2.2501056735    0.1449597374
C        2.6885562867   -2.1714818511   -1.2108461715
N        2.4903645176   -2.0251496006   -2.3696049419
H       -0.4048153753    0.0137658257   -0.7085001495
C        0.1935666698    0.2111152243    0.1471228888
C        0.9636133625    0.5260460150    1.0146922119
C        1.7688454215    0.7703998890    2.0744091704
N        2.5170035269    1.0315913823    2.9458732100
30   
Iteration 3 Energy -1011.86165236
H       -0.5315267343   -2.8329640075   -2.7474629038
C       -0.4966001650   -3.1209099683   -1.7209300670
C       -0.4548746298   -3.3674572169   -0.5373695243
C       -0.3849970777   -3.5352194122    0.8077780846
N       -0.3010534892   -3.5995198076    1.9729808056
H        2.9356740485    0.6841205463   -2.6886957181
C        2.5767267069    1.4982028267   -2.1002062313
C        2.1398232343    2.3620479815   -1.3735525660
C        1.5897698853    3.2200163916   -0.4679320731
N        1.0877926369    3.8934553482    0.3491547215
H       -0.6065013312    1.4322940698    3.7341675299
C       -1.3832843040    1.4826484145    3.0092079639
C       -2.2230319246    1.5097382739    2.1418535680
C       -3.0691913604    1.5012855951    1.0770339668
N       -3.7509639536    1.4778901922    0.1250511961
H       -2.5981704884   -1.8403400272    2.4870546196
C       -2.8560089833   -1.7573180497    1.4573929436
C       -3.0787610042   -1.6311821776    0.2763153264
C       -3.1177458993   -1.4805896175   -1.0750175445
N       -3.1203869183   -1.3111364497   -2.2331629053
H        2.4336031650   -2.2252017845    2.3973318444
C        2.6047213626   -2.2467489935    1.3468121848
C        2.7421629216   -2.2706609262    0.1451340427
C        2.6623125592   -2.1558995626   -1.2073370737
N        2.5314755922   -2.0289674144   -2.3668085721
H       -0.4266983327    0.0029980526   -0.6995471965
C        0.2198854157    0.2274213681    0.1117663077
C        0.9470896313    0.4929670722    1.0355548315
C        1.7809275684    0.7832707983    2.0655017030
N        2.5048318585    1.0267584832    2.9549307313
30   
Iteration 4 Energy -1011.85422176
H       -0.5419902037   -2.8730876661   -2.7461516923
C       -0.4818297984   -3.1184960892   -1.7165695057
C       -0.4451142118   -3.3756283573   -0.5380498346
C       -0.3593851271   -3.5180340201    0.8135809911
N       -0.3066546224   -3.6430105277    1.9738199243
H        2.9386083329    0.7051746486   -2.7076431527
C        2.5776442719    1.4988108267   -2.1031018035
C        2.1334031385    2.3412012629   -1.3636358630
C        1.5988854939    3.2268440155   -0.4795435753
N        1.1099290679    3.9230547476    0.3193212228
H       -0.6383538994    1.4455477032    3.7646456871
C       -1.3836336694    1.5044934949    3.0116951952
C       -2.2139442574    1.5058236670    2.1365728470
C       -3.0750475420    1.5287972169    1.0838585082
N       -3.7622711212    1.5032545459    0.1400098066
H       -2.6304789351   -1.8762023828    2.4821902338
C       -2.9012629618   -1.7256655509    1.4646943668
C       -2.9872541884   -1.6697763888    0.2605497487
C       -3.2117297376   -1.4204714609   -1.0635271498
N       -3.1145346382   -1.3347564137   -2.2285100468
H        2.4940850400   -2.2618296843    2.3945967893
C        2.6197187476   -2.2731949885    1.3460774726
C        2.6636176156   -2.2153439036    0.1436043672
C        2.7139524093   -2.1877703184   -1.2139925337
N        2.5731647306   -2.0011033292   -2.3597657699
H       -0.4445451348   -0.0029866763   -0.6993816466
C        0.2189836974    0.2282630844    0.0982806514
C        0.9507941612    0.4699575075    1.0310107620
C        1.7744766404    0.7841435713    2.0693269912
N        2.4877666928    1.0229914669    2.9630370014
30   
Iteration 5 Energy -1011.86166130
H       -0.5355819986   -2.8516103972   -2.7467595830
C       -0.4906886946   -3.1177034194   -1.7189579834
C       -0.4510595747   -3.3721567420   -0.5389208605
C       -0.3717588434   -3.5254025141    0.8106450768
N       -0.3043963849   -3.6194451959    1.9736931694
H        2.9353349882    0.6933271947   -2.6960207187
C        2.5794876845    1.5009868494   -2.1021997184
C        2.1358432790    2.3509356902   -1.3682699655
C        1.5926979281    3.2218575881   -0.4729685947
N        1.0988901307    3.9066355291    0.3349776352
H       -0.6188969811    1.4404317065    3.7462808867
C       -1.3870262292    1.4880279248    3.0138569085
C       -2.2169596218    1.5082819349    2.1375279917
C       -3.0704334482    1.5163419437    1.0782191708
N       -3.7570163563    1.4870651291    0.1329357472
H       -2.6134577758   -1.8551672468    2.4856731725
C       -2.8762710595   -1.7445284205    1.4618784286
C       -3.0304392909   -1.6517723126    0.2687180018
C       -3.1685338382   -1.4477267001   -1.0701179282
N       -3.1138166518   -1.3242653711   -2.2320950855
H        2.4578360908   -2.2391498038    2.3957131363
C        2.6170888269   -2.2643438352    1.3476176950
C        2.7008688007   -2.2404840567    0.1448331790
C        2.6875985621   -2.1725546767   -1.2120146653
N        2.5486560131   -2.0161651621   -2.3626732714
H       -0.4342871176    0.0005673901   -0.7013849364
C        0.2168508536    0.2267937030    0.1070423851
C        0.9497698126    0.4824606432    1.0330665156
C        1.7795550700    0.7852538201    2.0675215679
N        2.4971458172    1.0245088074    2.9591826370
30   
Iteration 6 Energy -1011.86423190
H       -0.5362557498   -2.8595313040   -2.7475415274
C       -0.4925076715   -3.1215470108   -1.7185984798
C       -0.4434550191   -3.3652842669   -0.5366850734
C       -0.3724480738   -3.5363675421    0.8110816834
N       -0.3044124223   -3.6237691634    1.9748848064
H        2.9344210918    0.6941851598   -2.6998481497
C        2.5833780929    1.5037039624   -2.1051228086
C        2.1359712225    2.3503489192   -1.3693939534
C        1.5918916061    3.2199647496   -0.4737515744
N        1.1050459610    3.9160752560    0.3284999593
H       -0.6218275703    1.4478918060    3.7508161272
C       -1.3941667563    1.4829839876    3.0213768674
C       -2.2162454406    1.5173683727    2.1372710893
C       -3.0665291168    1.5215106014    1.0752717959
N       -3.7629494471    1.4936070460    0.1373571656
H       -2.6238095665   -1.8593120705    2.4878558353
C       -2.8677464135   -1.7543936573    1.4598807737
C       -3.0515838531   -1.6370738372    0.2724064455
C       -3.1502473013   -1.4561049138   -1.0724612877
N       -3.1281164309   -1.3198210624   -2.2326617225
H        2.4669898337   -2.2456209621    2.3974823368
C        2.6218011173   -2.2699397574    1.3472509635
C        2.7096545027   -2.2499069780    0.1440389178
C        2.6740986045   -2.1521995394   -1.2109882220
N        2.5686415686   -2.0189198745   -2.3659220397
H       -0.4358658221    0.0009360598   -0.7030813589
C        0.2130837336    0.2226891242    0.1090825923
C        0.9484651166    0.4838858430    1.0307891446
C        1.7801366320    0.7811992660    2.0657280606
N        2.4915875619    1.0244417866    2.9619816262
30   
Iteration 7 Energy -1011.86535810
H       -0.5397153912   -2.8767756419   -2.7483728549
C       -0.4891609072   -3.1277051082   -1.7161847838
C       -0.4385622951   -3.3728288027   -0.5338814706
C       -0.3670255238   -3.5406661297    0.8140270089
N       -0.3069283335   -3.6440543431    1.9769625150
H        2.9368004442    0.6977967544   -2.7094581685
C        2.5842340392    1.5042760380   -2.1112891865
C        2.1385225675    2.3508794889   -1.3734036424
C        1.5986109532    3.2270781852   -0.4815714458
N        1.1153011080    3.9323799921    0.3160622991
H       -0.6343792243    1.4569541250    3.7653573911
C       -1.4015595281    1.4931521252    3.0298268050
C       -2.2189986943    1.5231746000    2.1413119667
C       -3.0662118507    1.5413684068    1.0766490199
N       -3.7702865256    1.5101477210    0.1435572534
H       -2.6423550708   -1.8722552134    2.4903870979
C       -2.8692495822   -1.7665794985    1.4580423501
C       -3.0713901192   -1.6221394959    0.2756283095
C       -3.1414877226   -1.4614935025   -1.0735598158
N       -3.1477791970   -1.3133353885   -2.2331230473
H        2.4923239577   -2.2664016584    2.4001670299
C        2.6328951898   -2.2822593704    1.3467661904
C        2.7165357911   -2.2501748919    0.1425869301
C        2.6818392696   -2.1444630405   -1.2122262808
N        2.5981372965   -2.0026630288   -2.3703392602
H       -0.4417100817   -0.0003550791   -0.7038583826
C        0.2086595707    0.2208928401    0.1075666404
C        0.9446428770    0.4756433128    1.0297649543
C        1.7748648390    0.7818385317    2.0631191348
N        2.4804321339    1.0195680720    2.9664854325
30   
Iteration 8 Energy -1011.86657697
H       -0.5439986577   -2.9013488265   -2.7498224115
C       -0.4867615814   -3.1428346526   -1.7145112239
C       -0.4231606582   -3.3642984440   -0.5277081796
C       -0.3663017110   -3.5640847939    0.8163694584
N       -0.3060379634   -3.6654200565    1.9801666914
H        2.9402969455    0.7032211849   -2.7240604809
C        2.5852753596    1.5039179446   -2.1190998298
C        2.1422542858    2.3521098540   -1.3799274224
C        1.6066660553    3.2339086731   -0.4906477756
N        1.1314785645    3.9579631350    0.2966493084
H       -0.6532923768    1.4718067788    3.7872849099
C       -1.4129910976    1.4996665069    3.0428131799
C       -2.2168080629    1.5504274112    2.1423686473
C       -3.0711781964    1.5473740301    1.0834006051
N       -3.7788620098    1.5416772452    0.1510012216
H       -2.6690691280   -1.8929407646    2.4936938656
C       -2.8810830019   -1.7741139924    1.4584574813
C       -3.0749546633   -1.6174376987    0.2759582328
C       -3.1511227044   -1.4526054375   -1.0723995022
N       -3.1673045442   -1.3106321341   -2.2342582613
H        2.5302767936   -2.2983242701    2.4041432578
C        2.6468768602   -2.2943706502    1.3462415286
C        2.7227371408   -2.2615064376    0.1401104163
C        2.6908507362   -2.1187142383   -1.2128270973
N        2.6407179214   -1.9862176509   -2.3764082477
H       -0.4500314984   -0.0015052227   -0.7055705011
C        0.2016304710    0.2110197934    0.1073558740
C        0.9415043007    0.4811740454    1.0212681002
C        1.7639337076    0.7633576797    2.0674199916
N        2.4654587027    1.0197309865    2.9695381511
30   
Iteration 9 Energy -1011.86827799
H       -0.5475954116   -2.9257556464   -2.7481855519
C       -0.4832039363   -3.1536760568   -1.7107679818
C       -0.4189412824   -3.3794021251   -0.5250078306
C       -0.3593643848   -3.5747710094    0.8201829466
N       -0.3087709607   -3.6927751104    1.9827777091
H        2.9405376945    0.7064544131   -2.7353913059
C        2.5908734545    1.5098167979   -2.1299650459
C        2.1462319595    2.3544455962   -1.3883655017
C        1.6157332532    3.2442508849   -0.5040177783
N        1.1493522860    3.9803399760    0.2765373653
H       -0.6720779012    1.4855761823    3.8074517906
C       -1.4247608502    1.5148657413    3.0560836934
C       -2.2232758102    1.5639840899    2.1505457995
C       -3.0734208482    1.5760615694    1.0878130730
N       -3.7864738788    1.5676620367    0.1603978489
H       -2.6930716993   -1.9152160140    2.4936693012
C       -2.8983906945   -1.7784324392    1.4595908877
C       -3.0814127224   -1.6177661605    0.2759886206
C       -3.1658241814   -1.4466491708   -1.0714047313
N       -3.1848477611   -1.3048994763   -2.2324218574
H        2.5655742518   -2.3292156218    2.4031206908
C        2.6696180449   -2.3155345116    1.3437810634
C        2.7324366146   -2.2576821991    0.1377348471
C        2.7135713886   -2.1084052118   -1.2151077505
N        2.6811109633   -1.9626370044   -2.3762508181
H       -0.4589350723   -0.0043459966   -0.7076871714
C        0.1946880684    0.2094814155    0.1032368026
C        0.9337267192    0.4705774386    1.0213320402
C        1.7544711831    0.7625084717    2.0665212628
N        2.4494415000    1.0121391404    2.9748075716
30   
Iteration 10 Energy -1011.86988801
H       -0.5509136449   -2.9564539632   -2.7458515754
C       -0.4799368818   -3.1767078361   -1.7071286781
C       -0.4110513747   -3.3924660870   -0.5199049006
C       -0.3565899935   -3.5975522937    0.8240271277
N       -0.3072701349   -3.7255207329    1.9856329150
H        2.9449911564    0.7117339584   -2.7519919907
C        2.5911577355    1.5115941377   -2.1442977406
C        2.1536483363    2.3593751700   -1.4021383793
C        1.6350326751    3.2655307487   -0.5270297416
N        1.1725627833    4.0083332495    0.2494310294
H       -0.7005561666    1.5031171940    3.8376073138
C       -1.4387244051    1.5445380308    3.0727424250
C       -2.2323860003    1.5809072440    2.1629364943
C       -3.0819940361    1.6134776249    1.1000783026
N       -3.7928412436    1.6042121778    0.1710861533
H       -2.7283136315   -1.9424151700    2.4945261047
C       -2.9205301865   -1.7898137843    1.4604676351
C       -3.0955274300   -1.6215552861    0.2767747049
C       -3.1822573434   -1.4344978377   -1.0686738342
N       -3.2085388484   -1.2968070659   -2.2296047777
H        2.6151064547   -2.3782993140    2.4000239784
C        2.6988419151   -2.3390844041    1.3394834916
C        2.7488605947   -2.2502239354    0.1352767766
C        2.7575354505   -2.1050024678   -1.2173389096
N        2.7275823142   -1.9201442869   -2.3733244464
H       -0.4701171020   -0.0084946954   -0.7117314352
C        0.1850728271    0.2050527780    0.0976207487
C        0.9194035980    0.4624680124    1.0206907962
C        1.7375507655    0.7543485668    2.0673760505
N        2.4272017965    1.0013502696    2.9802343537
30   
Iteration 11 Energy -1011.87132418
H       -0.5554878728   -3.0008134446   -2.7431323697
C       -0.4705003453   -3.1989157843   -1.7007299616
C       -0.4137631704   -3.4341441627   -0.5159519560
C       -0.3388632926   -3.6056495423    0.8317046601
N       -0.3090463518   -3.7793862552    1.9881121340
H        2.9501767219    0.7175802399   -2.7748688373
C        2.5922179039    1.5129920269   -2.1635257173
C        2.1670370541    2.3722528773   -1.4267807182
C        1.6582992178    3.2880613151   -0.5553673348
N        1.2077904316    4.0507706508    0.2090382057
H       -0.7403522154    1.5304063494    3.8799101088
C       -1.4587249453    1.5781329029    3.0968591739
C       -2.2471373242    1.6229588780    2.1829717101
C       -3.0916664306    1.6474988498    1.1160225327
N       -3.8021769420    1.6612979154    0.1865980304
H       -2.7770290460   -1.9794584459    2.4959551241
C       -2.9581295441   -1.8096841623    1.4623405202
C       -3.1026229371   -1.6176346917    0.2781660431
C       -3.2190726277   -1.4297981864   -1.0648756125
N       -3.2344500705   -1.2792455499   -2.2252435817
H        2.6828531291   -2.4485213031    2.3944191094
C        2.7367687479   -2.3655931861    1.3338752311
C        2.7876936036   -2.2625493985    0.1309435044
C        2.8040479924   -2.0722471219   -1.2167568608
N        2.7969631299   -1.8704114230   -2.3699603827
H       -0.4849219899   -0.0150670213   -0.7186504758
C        0.1691740913    0.2015391250    0.0903267682
C        0.9025474433    0.4458283380    1.0178017523
C        1.7076771182    0.7479790178    2.0710131608
N        2.3976984943    0.9828211983    2.9867860306
30   
Iteration 12 Energy -1011.87346883
H       -0.5587013616   -3.0432129426   -2.7391996860
C       -0.4710121770   -3.2317066393   -1.6956115701
C       -0.4008199921   -3.4505300930   -0.5086618458
C       -0.3393883347   -3.6535904711    0.8359299029
N       -0.3061021641   -3.8177084569    1.9936539519
H        2.9477988902    0.7183159037   -2.7935179669
C        2.6068128350    1.5273692583   -2.1884482045
C        2.1768475528    2.3816188773   -1.4489279818
C        1.6773057039    3.3097530457   -0.5852399386
N        1.2446418891    4.0925604074    0.1694651070
H       -0.7749806551    1.5601712438    3.9174939643
C       -1.4868414164    1.6067498510    3.1283219238
C       -2.2611611895    1.6593599328    2.2018188249
C       -3.1001996181    1.6996469518    1.1301690426
N       -3.8123864106    1.7125089868    0.2022333051
H       -2.8223332027   -2.0202203245    2.4959570430
C       -2.9900757039   -1.8206998080    1.4642931576
C       -3.1366654344   -1.6232987070    0.2808835922
C       -3.2341298359   -1.4213537801   -1.0621725355
N       -3.2684699703   -1.2625077218   -2.2210440834
H        2.7423784633   -2.5086552804    2.3886158485
C        2.7902999489   -2.4121543023    1.3283554372
C        2.8265477901   -2.2613464874    0.1272512248
C        2.8511198409   -2.0439781403   -1.2180765128
N        2.8696846929   -1.8202315454   -2.3678421168
H       -0.5007336575   -0.0198813643   -0.7263080826
C        0.1538518523    0.1931883844    0.0835147483
C        0.8823095410    0.4395051482    1.0151884360
C        1.6858079000    0.7307048911    2.0736622138
N        2.3655941965    0.9706231866    2.9952427904
30   
Iteration 13 Energy -1011.87523314
H       -0.5588957492   -3.0943376162   -2.7319685882
C       -0.4742029303   -3.2846181965   -1.6887976409
C       -0.3925347791   -3.4913079956   -0.5007669225
C       -0.3412365371   -3.7070961300    0.8422407505
N       -0.2991837993   -3.8720494990    1.9993103661
H        2.9514550184    0.7206097678   -2.8173509046
C        2.6117676973    1.5373330706   -2.2220994852
C        2.1970719501    2.4022190189   -1.4857567537
C        1.7168002858    3.3524100589   -0.6353638030
N        1.2909998715    4.1417578001    0.1158510154
H       -0.8235648208    1.6007502274    3.9689606042
C       -1.5261295474    1.6561498137    3.1721622556
C       -2.2854157317    1.7122884112    2.2336620434
C       -3.1171819743    1.7687133562    1.1567884290
N       -3.8200213975    1.7852591227    0.2217920008
H       -2.8845402295   -2.0650762984    2.4956568472
C       -3.0376722688   -1.8554767007    1.4646396418
C       -3.1827336219   -1.6304841284    0.2856754616
C       -3.2689097656   -1.4084514472   -1.0552843324
N       -3.3039929142   -1.2369664901   -2.2122559489
H        2.8202778620   -2.6006002970    2.3726153140
C        2.8661739190   -2.4558924068    1.3174808976
C        2.8963616545   -2.2754604308    0.1212298680
C        2.9379647970   -2.0047624585   -1.2146539584
N        2.9540617093   -1.7463014181   -2.3568902223
H       -0.5194012003   -0.0255930445   -0.7411695131
C        0.1279073580    0.1811697409    0.0764913043
C        0.8521913479    0.4277008584    1.0114584718
C        1.6493731525    0.7121629980    2.0769226655
N        2.3202106128    0.9469503172    3.0064201269
30   
Iteration 14 Energy -1011.87583126
H       -0.5577085614   -3.1642316524   -2.7227072643
C       -0.4710808600   -3.3570369822   -1.6805233890
C       -0.4026374584   -3.5530037353   -0.4903738069
C       -0.3268907867   -3.7806010746    0.8490566070
N       -0.2916507828   -3.9424465674    2.0065369220
H        2.9549906312    0.7219657848   -2.8497521401
C        2.6183077530    1.5464301907   -2.2640939081
C        2.2321357996    2.4456795250   -1.5519185486
C        1.7647861688    3.3968986705   -0.6964437134
N        1.3613628195    4.2162481686    0.0345386876
H       -0.8929054540    1.6608806945    4.0423683418
C       -1.5776594336    1.7226826723    3.2310076580
C       -2.3264035749    1.8009033120    2.2860461420
C       -3.1362438838    1.8460356029    1.1922630804
N       -3.8299394060    1.8906305308    0.2510947715
H       -2.9721453817   -2.1258428561    2.4953806597
C       -3.1068066107   -1.8986532507    1.4665073479
C       -3.2471370027   -1.6532046155    0.2914933320
C       -3.3157483332   -1.3863289366   -1.0429400350
N       -3.3486684035   -1.1993797494   -2.1975022091
H        2.9254259983   -2.7276102995    2.3452149517
C        2.9635396389   -2.5317168321    1.2982523938
C        3.0288507542   -2.2646506155    0.1185630279
C        3.0323973965   -1.9791883789   -1.2120906927
N        3.0756373326   -1.6305209526   -2.3324837284
H       -0.5448810093   -0.0341707831   -0.7641835184
C        0.0927117649    0.1633055947    0.0639496336
C        0.8055527832    0.4175175018    1.0054813549
C        1.5944324970    0.6758892408    2.0842312111
N        2.2553755713    0.9145197959    3.0200268225
30   
Iteration 15 Energy -1011.87769215
H       -0.5571804988   -3.2039887902   -2.7208767609
C       -0.4706222234   -3.3818147057   -1.6759026552
C       -0.3964447162   -3.5901648718   -0.4879225365
C       -0.3301119236   -3.8089467548    0.8536187613
N       -0.2803106101   -3.9779393529    2.0096313468
H        2.9510032944    0.7190353724   -2.8643085990
C        2.6354313439    1.5622896617   -2.2911496763
C        2.2396005710    2.4515633385   -1.5736608328
C        1.7871142376    3.4258650631   -0.7359411755
N        1.3999512394    4.2539469494   -0.0048379434
H       -0.9297941929    1.6927629863    4.0820382451
C       -1.6016143153    1.7611572513    3.2603154476
C       -2.3408136376    1.8320677691    2.3076129765
C       -3.1501944112    1.8926131125    1.2144340464
N       -3.8331455276    1.9361268926    0.2652370077
H       -3.0169444316   -2.1612781989    2.4959487792
C       -3.1482653044   -1.9096417675    1.4705280959
C       -3.2667165451   -1.6591658708    0.2947755133
C       -3.3416229055   -1.3916474606   -1.0384238270
N       -3.3680515624   -1.1717208600   -2.1881672161
H        2.9767240709   -2.7898159481    2.3310801416
C        3.0221623267   -2.5684850671    1.2899702893
C        3.0662856615   -2.2807904127    0.1136186912
C        3.0988881838   -1.9267896954   -1.2022965820
N        3.1265054838   -1.5946878462   -2.3236339622
H       -0.5596256325   -0.0412483339   -0.7747447734
C        0.0781571557    0.1630230688    0.0513369778
C        0.7826326688    0.3999239796    1.0039405382
C        1.5606547529    0.6643475578    2.0891777750
N        2.2233474124    0.8944029367    3.0256018982
30   
Iteration 16 Energy -1011.87830350
H       -0.5534002218   -3.2549599688   -2.7174446398
C       -0.4734490856   -3.4312967010   -1.6717218009
C       -0.3936215354   -3.6354008517   -0.4833752987
C       -0.3213587676   -3.8504539327    0.8588419326
N       -0.2687111687   -4.0271777590    2.0138190557
H        2.9562746866    0.7205295069   -2.8851368828
C        2.6373512288    1.5708702294   -2.3252352113
C        2.2612483460    2.4739080857   -1.6138596441
C        1.8269226727    3.4663880681   -0.7878458772
N        1.4505320191    4.3069629125   -0.0656999735
H       -0.9790557608    1.7438494659    4.1366499529
C       -1.6418781423    1.8077980098    3.3077136737
C       -2.3645648745    1.8873597725    2.3421901822
C       -3.1606614440    1.9525490282    1.2393496299
N       -3.8411732780    2.0009799192    0.2894313828
H       -3.0845365653   -2.2012000151    2.4986387052
C       -3.1994889745   -1.9448785792    1.4729328804
C       -3.3084184752   -1.6695624078    0.3008834374
C       -3.3707339018   -1.3763411739   -1.0279197101
N       -3.3945466154   -1.1431349545   -2.1745213818
H        3.0498447092   -2.8849719167    2.3062556201
C        3.1019129570   -2.6066413538    1.2778508538
C        3.1344558320   -2.2954999543    0.1091621310
C        3.1806361544   -1.8919409751   -1.1925557113
N        3.2038186785   -1.5221307999   -2.3034213239
H       -0.5772730008   -0.0456135114   -0.7960323341
C        0.0486505080    0.1505351705    0.0413759257
C        0.7474461563    0.3822121308    0.9997307138
C        1.5206481809    0.6445709055    2.0892695393
N        2.1701296467    0.8636916521    3.0376741645
30   
Iteration 17 Energy -1011.87796743
H       -0.5478826716   -3.3251635913   -2.7136238907
C       -0.4779878756   -3.5030695721   -1.6673369921
C       -0.3857188727   -3.6955900465   -0.4779167733
C       -0.3164353305   -3.9124369640    0.8644217980
N       -0.2441728413   -4.0885589005    2.0186013494
H        2.9618961266    0.7218789042   -2.9123802176
C        2.6451940324    1.5857533607   -2.3724075267
C        2.2863069630    2.5044726521   -1.6719514630
C        1.8873271451    3.5287616990   -0.8666466686
N        1.5217485588    4.3802491364   -0.1527140837
H       -1.0494567227    1.8162433762    4.2151503303
C       -1.6967215422    1.8877950695    3.3744803883
C       -2.3934125156    1.9480579824    2.3888579980
C       -3.1842742780    2.0460035550    1.2844197572
N       -3.8451962744    2.0821928837    0.3203175550
H       -3.1813379305   -2.2547409012    2.5030631932
C       -3.2776839141   -1.9972779556    1.4765279007
C       -3.3551910244   -1.6761157363    0.3122699976
C       -3.4243059937   -1.3680426205   -1.0121673363
N       -3.4177535075   -1.0948975967   -2.1510539923
H        3.1533773939   -3.0113078374    2.2668605030
C        3.1986488516   -2.6773388492    1.2555160579
C        3.2591243629   -2.3005349333    0.1074379847
C        3.2756042504   -1.8451010524   -1.1759547264
N        3.3150313219   -1.4289499593   -2.2694358799
H       -0.6027477510   -0.0511299460   -0.8280490591
C        0.0045695558    0.1332316017    0.0261592648
C        0.7032897224    0.3585056092    0.9861299809
C        1.4486665244    0.6088685340    2.0985470643
N        2.0964941987    0.8192420957    3.0498774791
30   
Iteration 18 Energy -1011.87883416
H       -0.5484126851   -3.3478975513   -2.7135258981