30   
Iteration 0 Energy -1011.84502798
H       -0.5218254006   -2.8120591031   -2.8010627824
C       -0.4608458040   -2.9660075929   -1.7514139881
C       -0.3918688832   -3.1409490586   -0.5588130248
C       -0.3128953072   -3.3378831657    0.7867367629
N       -0.2459177175   -3.5068266383    1.9413504366
H        2.9540116067    0.7237578353   -2.6970975685
C        2.5341520890    1.4215243671   -2.0153256850
C        2.0563119712    2.2142591231   -1.2405849083
C        1.5174922568    3.1089597620   -0.3658775797
N        1.0556467874    3.8767028801    0.3838715590
H       -0.5778066696    1.4175257050    3.7147570662
C       -1.2865695221    1.3895350705    2.9230219756
C       -2.0913002644    1.3575457739    2.0233230091
C       -2.9989965550    1.3215578152    1.0096621735
N       -3.7777359938    1.2905681842    0.1389535070
H       -2.6151249960   -1.7614106433    2.5191571062
C       -2.7210895409   -1.6764390743    1.4655096499
C       -2.8420490686   -1.5794715190    0.2679103589
C       -2.9780035791   -1.4705079775   -1.0826377564
N       -3.0949644448   -1.3775390843   -2.2412500921
H        2.3752052716   -2.1372848782    2.4391838648
C        2.3772046026   -2.1512801955    1.3775390843
C        2.3782042681   -2.1672748438    0.1699431381
C        2.3792039337   -2.1852688231   -1.1916012979
N        2.3812032647   -2.2002638059   -2.3602102888
H       -0.3918688832   -0.0049983276   -0.7007655284
C        0.2609127003    0.2269240727    0.1049648794
C        1.0026645149    0.4908357695    1.0206584942
C        1.8383848882    0.7877364285    2.0543126402
N        2.5551450649    1.0436508011    2.9400162894
30   
Iteration 1 Energy -1011.85932317
H       -0.5323381149   -2.8497309725   -2.7739487208
C       -0.4921792918   -3.0528595210   -1.7299320455
C       -0.4377244502   -3.2570968999   -0.5402298158
C       -0.3661403570   -3.4514303085    0.8035778247
N       -0.3005936090   -3.5975526664    1.9614891695
H        2.9576678151    0.7220844359   -2.7130107222
C        2.5614995196    1.4650974306   -2.0631615684
C        2.0948551097    2.2797474173   -1.3027989984
C        1.5543295932    3.1665228026   -0.4202841272
N        1.0846035108    3.9119844984    0.3488150847
H       -0.6087782376    1.4357545157    3.7424099976
C       -1.3436404344    1.4391638915    2.9736188841
C       -2.1508306084    1.4427100370    2.0754865699
C       -3.0338038752    1.4376028435    1.0404289989
N       -3.7854474864    1.4183486858    0.1447171994
H       -2.6357242818   -1.8174892048    2.5078974280
C       -2.7906928384   -1.7313185698    1.4602909753
C       -2.9379504962   -1.6163660294    0.2674969943
C       -3.0629251099   -1.4684216971   -1.0789720207
N       -3.1417052948   -1.3456039885   -2.2393911076
H        2.4445555181   -2.2035873898    2.4196118964
C        2.5273782156   -2.2155664137    1.3593526256
C        2.5677261601   -2.2024376345    0.1532112512
C        2.5527385640   -2.1606744568   -1.2050596406
N        2.5161735329   -2.1155493192   -2.3735381458
H       -0.4133120614    0.0042911188   -0.6989826618
C        0.2298706509    0.2336047627    0.1146795875
C        0.9675913393    0.4948581254    1.0318941548
C        1.8058111977    0.7888779997    2.0611449962
N        2.5259858205    1.0360365006    2.9501859432
30   
Iteration 2 Energy -1011.86922635
H       -0.5154110831   -2.9381384044   -2.7486831461
C       -0.4498183685   -3.1763605634   -1.7137041380
C       -0.3836840537   -3.4061784448   -0.5285994394
C       -0.3135149410   -3.5970489112    0.8156401074
N       -0.2539406335   -3.7184389141    1.9774449219
H        2.9534335003    0.7186055427   -2.7477751186
C        2.5976415293    1.5196582526   -2.1431488645
C        2.1565274616    2.3701658424   -1.4064078098
C        1.6300613867    3.2652480685   -0.5248536781
N        1.1641490656    3.9994526746    0.2577904265
H       -0.6963553995    1.5004027408    3.8287757788
C       -1.4470871209    1.5364271943    3.0761145228
C       -2.2435844454    1.5763089024    2.1689353346
C       -3.0848238729    1.5941153590    1.1000240838
N       -3.7891615276    1.5827724236    0.1659719671
H       -2.7278564063   -1.9026606684    2.4930611892
C       -2.9375091626   -1.7724987284    1.4592186677
C       -3.1106565865   -1.6154853040    0.2739693612
C       -3.2061006801   -1.4286353575   -1.0696913005
N       -3.2243014259   -1.2775836230   -2.2297586564
H        2.5746946616   -2.3610741988    2.4015491682
C        2.6874208876   -2.3388897369    1.3437586389
C        2.7451982197   -2.2622906126    0.1392685560
C        2.7187969844   -2.1183944839   -1.2120873283
N        2.6547015907   -1.9654826569   -2.3708992505
H       -0.4513168007   -0.0127994044   -0.7125850471
C        0.1917078633    0.2016671196    0.1059981784
C        0.9232929776    0.4587358977    1.0310340535
C        1.7455876573    0.7564102789    2.0716186343
N        2.4489087227    1.0029896905    2.9750201914
30   
Iteration 3 Energy -1011.87408475
H       -0.5095277259   -3.0354167427   -2.7399374976
C       -0.4381920753   -3.2640975601   -1.7033101445
C       -0.3703514097   -3.4946053274   -0.5185573005
C       -0.3002771779   -3.6846177702    0.8270483118
N       -0.2413530655   -3.8041157140    1.9892334014
H        2.9413610363    0.7057731210   -2.7899657526
C        2.6169829657    1.5384843868   -2.2099363141
C        2.2035179803    2.4177605364   -1.4906686488
C        1.7053151084    3.3416477688   -0.6229342559
N        1.2616336198    4.0983477847    0.1510402868
H       -0.7938902097    1.5853362330    3.9367013664
C       -1.5278978429    1.6344402221    3.1683832867
C       -2.3036672809    1.6921422924    2.2437793838
C       -3.1195141036    1.7218494759    1.1547250786
N       -3.7956752231    1.7202006982    0.2001024351
H       -2.8376373819   -2.0050517597    2.4943199578
C       -3.0371313393   -1.8300875376    1.4648979465
C       -3.2031174405   -1.6307632592    0.2845576336
C       -3.2753124973   -1.4093710501   -1.0566051336
N       -3.2672375203   -1.2300967063   -2.2127083481
H        2.7254231931   -2.5473064467    2.3785768714
C        2.8256652515   -2.4495836233    1.3238318050
C        2.8840388074   -2.2901066549    0.1273099163
C        2.8631934352   -2.0415111791   -1.2097697509
N        2.8054231166   -1.7847994500   -2.3501021002
H       -0.4951355748   -0.0323915836   -0.7395797309
C        0.1477206924    0.1755295543    0.0815321456
C        0.8697816994    0.4266717331    1.0169225348
C        1.6711026631    0.7138242335    2.0782055782
N        2.3517582998    0.9529143005    2.9999070405
30   
Iteration 4 Energy -1011.87804014
H       -0.5096442203   -3.1879009569   -2.7384697149
C       -0.4277866144   -3.3816630744   -1.6955865689
C       -0.3523497195   -3.5959687360   -0.5084964189
C       -0.2761690780   -3.7839523298    0.8377151904
N       -0.2132004354   -3.9137343050    1.9984314090
H        2.9213908411    0.6862338357   -2.8540146679
C        2.6328097871    1.5511446113   -2.3006560777
C        2.2604971486    2.4661723497   -1.6034604692
C        1.8139514098    3.4429503438   -0.7663889699
N        1.4174183375    4.2544177820   -0.0228828850
H       -0.9400471993    1.7292849137    4.1056799058
C       -1.6287923364    1.7803441195    3.2968922117
C       -2.3669081642    1.8431165209    2.3423942491
C       -3.1550941272    1.8788416016    1.2326467480
N       -3.8090877779    1.8878966085    0.2627936988
H       -3.0242521744   -2.1507231154    2.5042209802
C       -3.1716049066   -1.9104420164    1.4790626881
C       -3.3014395949   -1.6501368412    0.3063094467
C       -3.3394567415   -1.3775397250   -1.0272316368
N       -3.3096406658   -1.1566891806   -2.1756738773
H        2.9433489762   -2.8402695915    2.3222567665
C        3.0087297480   -2.6063570671    1.2865534474
C        3.0602601097   -2.3128502705    0.1155095081
C        3.0613882814   -1.9130641073   -1.1850698006
N        3.0381337726   -1.5227632218   -2.2874692740
H       -0.5579569026   -0.0530887371   -0.7958190095
C        0.0742731899    0.1430916923    0.0366619587
C        0.7752453882    0.3787917484    0.9921103437
C        1.5429851460    0.6422215797    2.0848486474
N        2.1899985106    0.8636355507    3.0341321721
30   
Iteration 5 Energy -1011.87944415
H       -0.5129311759   -3.2862472946   -2.7430102922
C       -0.4250230898   -3.4498251787   -1.6956453959
C       -0.3410654914   -3.6434868784   -0.5057763689
C       -0.2554195144   -3.8300664986    0.8399719157
N       -0.1843857758   -3.9720282382    1.9987252082
H        2.9178937149    0.6992478766   -2.8943688298
C        2.6362665367    1.5795557400   -2.3604663440
C        2.2869406897    2.5116334921   -1.6742548521
C        1.8781320417    3.5229594670   -0.8605194649
N        1.5191016743    4.3746683642   -0.1435350618
H       -1.0306601518    1.8370301381    4.2181368855
C       -1.6807981201    1.8771281447    3.3776323260
C       -2.3910780013    1.9265988961    2.4015738006
C       -3.1649008612    1.9561733289    1.2816537047
N       -3.8149146649    1.9663964085    0.3092263873
H       -3.1651141963   -2.2370297270    2.5182236765
C       -3.2574502521   -1.9629042474    1.4952005943
C       -3.3425301227   -1.6659831151    0.3272244556
C       -3.3508728450   -1.3546815334   -0.9980548591
N       -3.3080792974   -1.1017633216   -2.1394643511
H        3.0728457640   -3.0319131519    2.2754294709
C        3.1170994492   -2.7063010697    1.2638378944
C        3.1615389915   -2.3317362789    0.1161061660
C        3.1823364707   -1.8598956629   -1.1594912601
N        3.1896985878   -1.4213339089   -2.2430067600
H       -0.6013509720   -0.0552520231   -0.8466196736
C        0.0148527651    0.1268510211    0.0011236645
C        0.6966954099    0.3445753715    0.9746523304
C        1.4416751275    0.5866838304    2.0881503498
N        2.0684972763    0.7919460320    3.0543446996
30   
Iteration 6 Energy -1011.88048607
H       -0.5266502152   -3.3770760452   -2.7513398227
C       -0.4322230266   -3.5110593924   -1.7004938471
C       -0.3337862073   -3.6778184388   -0.5077768851
C       -0.2292891426   -3.8596932369    0.8371274225
N       -0.1407014684   -4.0120291463    1.9933051297
H        2.9267427155    0.7330500419   -2.9241468314
C        2.6354025793    1.6239241896   -2.4137188978
C        2.3033792750    2.5715289424   -1.7403481094
C        1.9318087639    3.6193112927   -0.9560726573
N        1.6123460495    4.5123297833   -0.2714600500
H       -1.1082928873    1.9593594235    4.3270068227
C       -1.7194814674    1.9782668755    3.4572269302
C       -2.4013141593    1.9987474800    2.4601407311
C       -3.1611452788    2.0066115054    1.3304664509
N       -3.8100759955    2.0047209888    0.3572921254
H       -3.3254786185   -2.3213264600    2.5372830713
C       -3.3481606305   -2.0194699362    1.5182524908
C       -3.3673315260   -1.6856601524    0.3575077004
C       -3.3286454455   -1.3297247045   -0.9555239945
N       -3.2592399233   -1.0375932480   -2.0862896273
H        3.1790982758   -3.2129240321    2.2281140049
C        3.2144415334   -2.8071739055    1.2457093385
C        3.2558045341   -2.3609455166    0.1239435699
C        3.2985097605   -1.8384831409   -1.1309694591
N        3.3339319127   -1.3769417262   -2.2040373120
H       -0.6465552241   -0.0434814015   -0.9140849914
C       -0.0518105635    0.1173735382   -0.0466358102
C        0.6051363997    0.3080902812    0.9494849176
C        1.3230959088    0.5225160182    2.0862173105
N        1.9274840464    0.7065701172    3.0708203124
30   
Iteration 7 Energy -1011.88139403
H       -0.5549719092   -3.4552428583   -2.7611208756
C       -0.4499330092   -3.5672962940   -1.7088101853
C       -0.3300083596   -3.7065671856   -0.5146024251
C       -0.1958881098   -3.8781553205    0.8289236789
N       -0.0784137207   -4.0329189284    1.9821882087
H        2.9419322985    0.7595817757   -2.9247537253
C        2.6374781465    1.6633697246   -2.4462983821
C        2.3195794577    2.6351998284   -1.8009049561
C        1.9809660748    3.7273150861   -1.0627720107
N        1.6979472978    4.6647385275   -0.4228098243
H       -1.1689331662    2.0954927185    4.4290484570
C       -1.7474080927    2.0832646787    3.5371330284
C       -2.4023395451    2.0620452787    2.5221647217
C       -3.1455323296    2.0322199816    1.3819523573
N       -3.7890098300    2.0016378302    0.4056252890
H       -3.5072694698   -2.4072112401    2.5562727472
C       -3.4516526561   -2.0802404835    1.5463774694
C       -3.3856345069   -1.7083481840    0.3991574825
C       -3.2731888492   -1.3029733700   -0.8947793356
N       -3.1485367109   -0.9652273488   -2.0080858339
H        3.2604022261   -3.3830894690    2.1761618976
C        3.3039496228   -2.9134566865    1.2227174848
C        3.3492054726   -2.3991069571    0.1304889784
C        3.4089793160   -1.8249313482   -1.1013511016
N        3.4601691861   -1.3341887750   -2.1610799117
H       -0.6954924785   -0.0182123580   -0.9976514817
C       -0.1253885558    0.1148948996   -0.1086746925
C        0.5001105013    0.2700926901    0.9136577773
C        1.1845704518    0.4504522659    2.0766064266
N        1.7613112289    0.6078615325    3.0822187861
30   
Iteration 8 Energy -1011.88249171
H       -0.6178588132   -3.5407627013   -2.7736249932
C       -0.4881076892   -3.6340059027   -1.7222971204
C       -0.3280695092   -3.7390205602   -0.5293443238
C       -0.1386101358   -3.8893981733    0.8100032844
N        0.0334804030   -4.0351417547    1.9575949851
H        2.9672763431    0.7868308429   -2.8778703492
C        2.6496136815    1.7152903252   -2.4587714868
C        2.3470910217    2.7313515401   -1.8769725109
C        2.0432819268    3.8872776731   -1.2247663701
N        1.8007595924    4.8841122601   -0.6626180300
H       -1.2259385153    2.2946425144    4.5509349232
C       -1.7704632896    2.2263252903    3.6403840042
C       -2.3923920072    2.1332569817    2.6088003942
C       -3.1084917945    2.0297239905    1.4558203109
N       -3.7353643590    1.9365449035    0.4726695562
H       -3.7821798514   -2.5203317446    2.5685340086
C       -3.6108129523   -2.1621596548    1.5825001106
C       -3.4075420116   -1.7416807273    0.4688224248
C       -3.1583633271   -1.2707180182   -0.7825419479
N       -2.9153678203   -0.8698091585   -1.8547302048
H        3.3357790329   -3.5959246979    2.1001282781
C        3.4094895083   -3.0622635643    1.1825992251
C        3.4692555400   -2.4653090107    0.1338132306
C        3.5443564003   -1.8207924244   -1.0622778857
N        3.6029848154   -1.2814868696   -2.0981395028
H       -0.7595412662    0.0387066521   -1.1252397529
C       -0.2268898034    0.1264441059   -0.2069030053
C        0.3447968061    0.2226927915    0.8536931554
C        0.9723086034    0.3467225712    2.0550773791
N        1.5025194696    0.4598825410    3.0917222786
30   
Iteration 9 Energy -1011.88345590
H       -0.6632573671   -3.5327389871   -2.7770404702
C       -0.5131848485   -3.6343157468   -1.7291631588
C       -0.3289572635   -3.7371487675   -0.5394845688
C       -0.1069194332   -3.8758335808    0.7961339742
N        0.0969529849   -4.0061792582    1.9404121584
H        2.9824951945    0.7789452115   -2.8108084670
C        2.6666581210    1.7225163493   -2.4243457524
C        2.3612868675    2.7615887179   -1.8861280627
C        2.0499122959    3.9386263479   -1.2761587171
N        1.8001167494    4.9514084516   -0.7465411972
H       -1.2026905849    2.3536682277    4.5584886456
C       -1.7548481225    2.2567836017    3.6550838325
C       -2.3768951152    2.1298759157    2.6272216834
C       -3.0839986946    1.9822052368    1.4735491235
N       -3.6978456305    1.8461233308    0.4871734444
H       -3.8734137304   -2.5435666649    2.5756762525
C       -3.6706631682   -2.1818463870    1.5968627081
C       -3.4223098382   -1.7565618667    0.4941384729
C       -3.1145319771   -1.2780320584   -0.7408874974
N       -2.8097023007   -0.8681854983   -1.7933163353
H        3.3065603730   -3.6220343441    2.0909673884
C        3.4080659347   -3.0985833427    1.1701626903
C        3.4833399290   -2.4964588249    0.1252927664
C        3.5549900522   -1.8385915046   -1.0638174304
N        3.6013483130   -1.2812974750   -2.0908878755
H       -0.7450893920    0.0944213939   -1.1755208472
C       -0.2294312553    0.1620865323   -0.2456676370
C        0.3127962913    0.2293642955    0.8324257156
C        0.9100183564    0.3231937911    2.0511239825
N        1.4161972668    0.4115669141    3.1020552575
30   
Iteration 10 Energy -1011.88517232
H       -0.8061088044   -3.3986863058   -2.7709907768
C       -0.5860060909   -3.5542119681   -1.7421295710
C       -0.3326002643   -3.6870042481   -0.5681925899
C       -0.0223839717   -3.8018649302    0.7518882031
N        0.2659078080   -3.8801462428    1.8828169213
H        3.0204117238    0.7169627587   -2.5502260752
C        2.7241868319    1.6994678249   -2.2481884080
C        2.3886213558    2.7869713129   -1.8387389407
C        2.0074597226    3.9899762848   -1.3270184751
N        1.6818715359    5.0130005718   -0.8620557221
H       -1.0337726556    2.3970789275    4.4484743905
C       -1.6515554452    2.2308719324    3.5990944257
C       -2.3114424625    2.0282636993    2.6077038369
C       -3.0120914109    1.7626123988    1.4714774230
N       -3.5906719926    1.5059781018    0.4876308060
H       -3.9803534038   -2.5286045922    2.6087493709
C       -3.7597197316   -2.1842989820    1.6274040420
C       -3.4650919963   -1.7897470405    0.5244558951
C       -3.0578871732   -1.3496447318   -0.6959094182
N       -2.6357170069   -0.9751567406   -1.7190295846
H        3.0809417007   -3.4981834275    2.1312410616
C        3.2652021460   -3.0864047803    1.1676385298
C        3.3935953202   -2.5558617305    0.0897193230
C        3.4448701030   -1.9235595525   -1.1135421497
N        3.4423531351   -1.3504084323   -2.1327577145
H       -0.5863696007    0.2888954785   -1.2570545402
C       -0.1009145393    0.3199807710   -0.3089058890
C        0.3672564008    0.3196465353    0.8053047093
C        0.8842614448    0.3365334346    2.0619425431
N        1.3227473698    0.3585436714    3.1461985351
30   
Iteration 11 Energy -1011.88569670
H       -0.8152784037   -3.4373971536   -2.7648970718
C       -0.5856588736   -3.5792084953   -1.7363156912
C       -0.3251506836   -3.7094602897   -0.5637631077
C       -0.0116909290   -3.8333317038    0.7544791977
N        0.2786669300   -3.9276535927    1.8836275465
H        3.0183094342    0.7323890592   -2.5745256252
C        2.7247406896    1.7165669696   -2.2733642869
C        2.3988743933    2.8071957462   -1.8642511086
C        2.0344210830    4.0211509474   -1.3674596703
N        1.7237563414    5.0579942348   -0.9234690036
H       -1.0734235679    2.4365017640    4.4951070525
C       -1.6700663340    2.2703269129    3.6309509171
C       -2.3195296067    2.0676079296    2.6326600321
C       -3.0218633346    1.8078288590    1.4963374425
N       -3.6098917164    1.5629987265    0.5153170879
H       -4.0504643089   -2.5629781221    2.5915186124
C       -3.7970762714   -2.2063164722    1.6225023163
C       -3.4814919865   -1.7973699833    0.5307140205
C       -3.0615133336   -1.3442308934   -0.6814131175
N       -2.6435099952   -0.9629084656   -1.7045024724
H        3.1420511103   -3.5826641536    2.0993431904
C        3.3078492380   -3.1198957586    1.1557335958
C        3.4306426024   -2.5569544167    0.0936308143
C        3.4991096001   -1.8975530894   -1.0937306312
N        3.5224678584   -1.3075784292   -2.1026889165
H       -0.6087830509    0.2733846131   -1.2652058252
C       -0.1277312299    0.3039265776   -0.3150038503
C        0.3412861333    0.3032589201    0.7993787593
C        0.8538604411    0.3176189746    2.0593278927
N        1.2840878123    0.3377507838    3.1469620614
30   
Iteration 12 Energy -1011.88629342
H       -0.8853772714   -3.4513393513   -2.7421605207
C       -0.6126309089   -3.5900969412   -1.7239127650
C       -0.3120929753   -3.7325593133   -0.5625102166
C        0.0412435455   -3.8746609617    0.7434030569
N        0.3658076063   -3.9897652676    1.8612884400
H        3.0378237435    0.7496159115   -2.5306540641
C        2.7446870876    1.7435534584   -2.2590046042
C        2.4223674313    2.8498726097   -1.8911261916
C        2.0639378942    4.0879360638   -1.4542483155
N        1.7554666879    5.1494222883   -1.0711965981
H       -1.0871854587    2.5121934158    4.5337473820
C       -1.6668294551    2.3254208034    3.6623956199
C       -2.3119152303    2.1002085079    2.6660781139
C       -3.0196576490    1.8176867020    1.5387174076
N       -3.6187755624    1.5596671126    0.5679835352
H       -4.2071266313   -2.6121065213    2.5613965704
C       -3.8901289536   -2.2426083686    1.6162333434
C       -3.5252043366   -1.8213743561    0.5447733698
C       -3.0593474571   -1.3632191279   -0.6493727081
N       -2.6213751964   -0.9870259801   -1.6664537996
H        3.1685446519   -3.6851504511    2.0529816782
C        3.3271423762   -3.1676287199    1.1371816514
C        3.4566723403   -2.5731676239    0.0932893112
C        3.5529413108   -1.8783227139   -1.0710449515
N        3.6097987670   -1.2601100473   -2.0611938063
H       -0.5944523193    0.3006805679   -1.2906105903
C       -0.1275129716    0.3237709842   -0.3336014359
C        0.3266732450    0.3066443665    0.7870364008
C        0.8121174503    0.2972586112    2.0590013118
N        1.2113882991    0.2962043344    3.1585835820
30   
Iteration 13 Energy -1011.88689336
H       -0.9907210457   -3.4348027130   -2.6953129931
C       -0.6561071155   -3.5900129811   -1.6982380193
C       -0.2969448772   -3.7676077629   -0.5585386272
C        0.1147172173   -3.9502981398    0.7247118897
N        0.4870756028   -4.1027082162    1.8230959235
H        3.0848230946    0.7785679494   -2.4562649952
C        2.7808747213    1.7806895527   -2.2282176931
C        2.4533954219    2.9038756512   -1.9207782704
C        2.0917062051    4.1670333085   -1.5665843421
N        1.7788080083    5.2529083958   -1.2637010695
H       -1.0828145487    2.5953029940    4.5605490834
C       -1.6531113328    2.3826284603    3.6889791454
C       -2.3019544486    2.1297971768    2.7018146141
C       -3.0230822536    1.8188565268    1.5904676730
N       -3.6396794294    1.5411118653    0.6362745084
H       -4.4045307761   -2.6606426488    2.5132185564
C       -4.0188685387   -2.2811278608    1.5981094405
C       -3.5988882539   -1.8522226145    0.5501396385
C       -3.0838771135   -1.4001790672   -0.6260909353
N       -2.6218270968   -1.0400220863   -1.6383526682
H        3.1819362675   -3.7879614406    1.9991194211
C        3.3407128010   -3.2150816551    1.1172654234
C        3.4793190590   -2.5884940709    0.0936099277
C        3.6045410812   -1.8524916226   -1.0418261895
N        3.6948836477   -1.1993137655   -2.0066027022
H       -0.5590059167    0.3346847515   -1.3036386129
C       -0.1057438439    0.3527780604   -0.3406162373
C        0.3382590334    0.3217625679    0.7836711671
C        0.7974631664    0.2889468829    2.0653241254
N        1.1656413430    0.2650224602    3.1754130398
30   
Iteration 14 Energy -1011.88751188
H       -1.1027923268   -3.4030153976   -2.6321894847
C       -0.7081259457   -3.5947585567   -1.6639349920
C       -0.2880322112   -3.8192102094   -0.5536779447
C        0.1869815775   -4.0546664190    0.6984475672
N        0.6115525218   -4.2527377760    1.7702709307
H        3.1473664750    0.8273974644   -2.3664066584
C        2.8264660739    1.8362884747   -2.1966482666
C        2.4903448424    2.9747886283   -1.9638342275
C        2.1235454207    4.2591478532   -1.7038585312
N        1.8088115626    5.3648331542   -1.4864362737
H       -1.0751070514    2.6927478588    4.5842242667
C       -1.6426236035    2.4486809760    3.7190151962
C       -2.2951881019    2.1605782397    2.7440446347
C       -3.0254666467    1.8118247115    1.6497945276
N       -3.6529491044    1.5022677467    0.7124939495
H       -4.6290083547   -2.7048592673    2.4521968906
C       -4.1788394297   -2.3181598405    1.5701417116
C       -3.6949799089   -1.8823377634    0.5530241875
C       -3.1196946163   -1.4338406107   -0.5960342377
N       -2.6129923111   -1.0828963878   -1.5899494456
H        3.2050931834   -3.8936434013    1.9400067406
C        3.3780860186   -3.2738733829    1.0933298927
C        3.5250831255   -2.6076319192    0.0962461900
C        3.6678404701   -1.8241470504   -1.0044108034
N        3.7758790017   -1.1307844680   -1.9387867843
H       -0.5281950244    0.3647330834   -1.3130935677
C       -0.0892242265    0.3747674916   -0.3435547637
C        0.3447163550    0.3317588432    0.7841601200
C        0.7819148412    0.2801992790    2.0727040714
N        1.1265374828    0.2375485564    3.1897153525
30   
Iteration 15 Energy -1011.88928684
H       -1.3649702752   -3.2821159891   -2.3915380103
C       -0.8351839613   -3.6131258926   -1.5316508584
C       -0.2758925705   -3.9965444489   -0.5317007309
C        0.3439167894   -4.4116580572    0.6044378443
N        0.8851835787   -4.7630903745    1.5799450502
H        3.3171862984    1.0093770837   -2.1440941073
C        2.9552096069    2.0195236659   -2.1292186544
C        2.5974938834    3.1747927302   -2.0944534153
C        2.2188264286    4.4817304681   -2.0793797662
N        1.9030658986    5.6083361682   -2.0793486309
H       -1.0503812180    2.9307194275    4.6238381265
C       -1.6242387863    2.6124129296    3.7871321218
C       -2.2928490419    2.2408934664    2.8520891759
C       -3.0507144271    1.8029564859    1.8092247366
N       -3.7068538190    1.4154501965    0.9214719471
H       -5.2120337680   -2.7889041293    2.2564171935
C       -4.6265277012   -2.3925289036    1.4625382432
C       -3.9957301745   -1.9470092211    0.5339148656
C       -3.2807853344   -1.5132928415   -0.5390607546
N       -2.6646392847   -1.1879422966   -1.4782554331
H        3.3088840518   -4.1434498086    1.7710171474
C        3.5211718630   -3.4147607540    1.0258223304
C        3.6764651969   -2.6375758907    0.1138471565
C        3.8417911350   -1.7268272718   -0.8797396916
N        3.9705491933   -0.9260132137   -1.7208829123
H       -0.4663198398    0.3950558984   -1.2938058108
C       -0.0491170867    0.3960670299   -0.3154472845
C        0.3857135549    0.3491113405    0.8112726627
C        0.8031477605    0.2814468768    2.1048962093
N        1.1246321733    0.2179650952    3.2277115785
30   
Iteration 16 Energy -1011.89109219
H       -1.5313025087   -3.1578640041   -2.0831297059
C       -0.9195030711   -3.6508161637   -1.3669383825
C       -0.2650003923   -4.1954394748   -0.5095827416
C        0.4653461541   -4.7885002878    0.4711808061
N        1.0991121352   -5.2875178636    1.3181892391
H        3.4452582569    1.2262127390   -1.9410289176
C        3.0727550269    2.2243782028   -2.0736473075
C        2.7093731863    3.3682546764   -2.2279159316
C        2.3288884671    4.6590225470   -2.4332683952
N        2.0175054865    5.7707994336   -2.6237323443
H       -1.0138377209    3.1357700538    4.6228846323
C       -1.6091281518    2.7482980340    3.8313705592
C       -2.2962493698    2.2987435764    2.9452096369
C       -3.0740606877    1.7739877199    1.9582164417
N       -3.7452657705    1.3085906500    1.1204264541
H       -5.7357229930   -2.8209991753    2.0595377445
C       -5.0597385422   -2.4298184123    1.3381952600
C       -4.3133873652   -1.9859782609    0.4988368546
C       -3.4760857114   -1.5640342426   -0.4861232971
N       -2.7513390528   -1.2543715492   -1.3501256220
H        3.4138595091   -4.3426071278    1.5964769944
C        3.6659068928   -3.5363444292    0.9479824866
C        3.8264585485   -2.6534852738    0.1383097710
C        3.9897646538   -1.6260668275   -0.7349767672
N        4.1069501098   -0.7255842227   -1.4701832148
H       -0.4295250744    0.3936822972   -1.2536333571
C       -0.0211422376    0.3943097769   -0.2715940392
C        0.4237023535    0.3614610882    0.8515158670
C        0.8504391796    0.3035683335    2.1423338525
N        1.1829688418    0.2433478288    3.2622138357
30   
Iteration 17 Energy -1011.89310743
H       -1.5536641143   -3.0285969230   -1.6752873197
C       -0.9305142270   -3.7230221397   -1.1612187024
C       -0.2365308738   -4.4457786796   -0.4856588558
C        0.5630395364   -5.2199389371    0.2949798449
N        1.2628060648   -5.8607476978    0.9792694817
H        3.5616248396    1.4657722400   -1.7660566690
C        3.2052141374    2.4388415835   -2.0441322525
C        2.8427158891    3.5448163864   -2.3762572496
C        2.4582478659    4.7909801854   -2.7696601991
N        2.1452704896    5.8648997399   -3.1137953498
H       -0.9516041705    3.2929915289    4.5610297207
C       -1.5920826332    2.8438928441    3.8404310107
C       -2.3093370018    2.3253272165    3.0181806161
C       -3.1079543641    1.7215777835    2.0949602453
N       -3.7863513584    1.1836828262    1.3081353455
H       -6.2290214615   -2.7925750550    1.8816013556
C       -5.5080865429   -2.4206109137    1.1946253502
C       -4.6837557001   -1.9864472905    0.4265320543
C       -3.7563045759   -1.5638136887   -0.4729627565
N       -2.9443802499   -1.2473430225   -1.2528918131
H        3.5098348474   -4.5000665427    1.3984070977
C        3.7912222848   -3.6310277583    0.8468170512
C        3.9570847491   -2.6397741969    0.1744189978
C        4.0963355825   -1.4964754702   -0.5494014469
N        4.1745127149   -0.4986751489   -1.1528273577
H       -0.4374953072    0.3276072992   -1.1531273594
C       -0.0089794937    0.3491572291   -0.1798673863
C        0.4762627893    0.3683029726    0.9263763503
C        0.9713719536    0.3696363192    2.1936355424
N        1.3775184911    0.3584067772    3.2907451375
30   
Iteration 18 Energy -1011.89434649
H       -1.5155010802   -2.9881559541   -1.6709785730