3    
Climbing Image - Chain 10 Image 4 Energy   -93.2928325944 (+62.529 kcal/mol) RMSGrad 0.031 eV/Ang
C       -0.0348790911   -0.6864109687   -0.0000000072
N       -0.6562941160    0.3533505386    0.0000000001
H        0.6911732064    0.3330604314    0.0000000071
