3    
Climbing Image - Chain 10 Image 4 Energy   -93.2928341587 (+62.528 kcal/mol) RMSGrad 0.026 eV/Ang
C       -0.0350095912   -0.6867154169   -0.0000000101
N       -0.6555065272    0.3534225389   -0.0000000000
H        0.6905161186    0.3332928784    0.0000000101
