3    
Climbing Image - Chain 10 Image 4 Energy   -93.2928341385 (+62.528 kcal/mol) RMSGrad 0.026 eV/Ang
C       -0.0350094958   -0.6867153327   -0.0000000206
N       -0.6555065997    0.3534225106    0.0000000098
H        0.6905160957    0.3332928231    0.0000000110
