3    
Climbing Image - Chain 10 Image 4 Energy   -93.2928326044 (+62.529 kcal/mol) RMSGrad 0.031 eV/Ang
C       -0.0348788758   -0.6864103981   -0.0000000076
N       -0.6562938090    0.3533501532    0.0000000005
H        0.6911726847    0.3330602456    0.0000000071
