3    
Climbing Image - Chain 34 Image 4 Energy   -93.2928354983 (+62.527 kcal/mol) RMSGrad 0.031 eV/Ang
C       -0.0596235578   -0.6847055280   -0.0000000262
N       -0.6417967105    0.3777057736   -0.0000000007
H        0.7014202670    0.3069997560    0.0000000269
