3    
Climbing Image - Chain 10 Image 4 Energy   -93.2928325317 (+62.529 kcal/mol) RMSGrad 0.031 eV/Ang
C       -0.0348786996   -0.6864106073   -0.0000000216
N       -0.6562933853    0.3533502865    0.0000000081
H        0.6911720851    0.3330603209    0.0000000135
