3    
Climbing Image - Chain 10 Image 4 Energy   -93.2928325705 (+62.529 kcal/mol) RMSGrad 0.031 eV/Ang
C       -0.0348786876   -0.6864102693   -0.0000000068
N       -0.6562936239    0.3533502356   -0.0000000000
H        0.6911723113    0.3330600340    0.0000000069
