29   
Iteration 0 Energy -1909.15405028
Fe       7.6269760000   29.5036960000   11.9337610000
Fe       6.3776610000   27.7442490000   13.1847520000
Fe       8.9605150000   27.5838150000   13.0685210000
Fe       6.7987770000   30.0690230000   14.3243870000
N        7.8731090000   28.8122020000   13.7026690000
O        8.0979200000   28.0938000000    9.4055830000
O        5.3318660000   31.0461010000   10.9236350000
O        9.7406050000   31.5157260000   11.6217430000
O        6.3010080000   25.6898250000   11.0966390000
O        3.6547790000   28.6751230000   12.5988530000
O        5.7678350000   26.0807550000   15.5362690000
O        9.5227220000   25.6263600000   10.9504380000
O       11.6105230000   28.8248940000   13.1142100000
O        9.3272610000   25.7228220000   15.2901650000
O        8.6609610000   32.2849010000   14.7528780000
O        4.3905390000   31.7289620000   13.9207520000
O        6.2970490000   29.3402140000   17.1128010000
C        7.9304810000   28.6065810000   10.4168050000
C        6.2309930000   30.4546240000   11.3439630000
C        8.9226440000   30.7389410000   11.7484500000
C        6.3645000000   26.4869190000   11.9178000000
C        4.7292340000   28.3527300000   12.8498310000
C        6.0155220000   26.7153850000   14.6322610000
C        9.3110310000   26.3752250000   11.7667260000
C       10.5979930000   28.3451160000   13.0861880000
C        9.1993530000   26.4259950000   14.4166150000
C        7.9001200000   31.4243390000   14.6018030000
C        5.3167950000   31.0791020000   14.0803530000
C        6.4886880000   29.6346840000   16.0345710000
29   
Iteration 1 Energy -1909.23166631
Fe       7.6249277539   29.5107616639   11.9240589835
Fe       6.3682379388   27.7417583338   13.1865718325
Fe       8.9736182064   27.5771652666   13.0563318518
Fe       6.7996388002   30.0611495157   14.3350063073
N        7.8756329876   28.8060296507   13.6983565492
O        8.0951184033   28.1471878169    9.3419130651
O        5.3464807532   31.0790025762   10.8674731189
O        9.7540308013   31.5468746600   11.5884133646
O        6.2317572520   25.6498084296   11.1005070915
O        3.6201739196   28.6799552637   12.6257195563
O        5.7481061413   26.0620371744   15.5508093116
O        9.5907432931   25.5849675815   10.9275355148
O       11.6405363266   28.8451205034   13.1138014952
O        9.3498380640   25.6985748794   15.2999953670
O        8.6662927790   32.2977081707   14.8022688104
O        4.3498771588   31.7216371767   13.9685558743
O        6.3116118113   29.3244950338   17.1539148562
C        7.9220609423   28.6487409773   10.4048859571
C        6.2490485073   30.4563703393   11.3315446231
C        8.9074054397   30.7342247873   11.7404041664
C        6.3340899264   26.4897804825   11.9347907095
C        4.7359573138   28.3497510585   12.8705003489
C        6.0136418222   26.7328968961   14.6142039278
C        9.3429538452   26.3766461876   11.7657583199
C       10.5795156644   28.3375057290   13.0797687562
C        9.2077318569   26.4375992296   14.3909101257
C        7.8945564919   31.4098877115   14.6222748527
C        5.3149667117   31.0503147376   14.1109519593
C        6.4989089650   29.6241570133   16.0261952723
29   
Iteration 2 Energy -1909.23613025
Fe       7.6234967221   29.5130951298   11.9215875776
Fe       6.3646165073   27.7422156339   13.1845974678
Fe       8.9806668302   27.5708614040   13.0440767471
Fe       6.8027711078   30.0565219442   14.3444243860
N        7.8786603860   28.8011843415   13.6945579406
O        8.0871456905   28.1774763924    9.3214074622
O        5.3610881774   31.0924050373   10.8484527707
O        9.7396524274   31.5601301395   11.5611050452
O        6.2046977140   25.6407883263   11.1062931704
O        3.6151442088   28.6896390039   12.6418267575
O        5.7280564008   26.0532599311   15.5356037940
O        9.6228106438   25.5743558674   10.9190346048
O       11.6516065851   28.8297011486   13.1142006370
O        9.3751010135   25.6872300402   15.2826786698
O        8.6574720072   32.2981412433   14.8496654452
O        4.3356070384   31.7025971216   14.0062645743
O        6.3252347648   29.3397208693   17.1710375858
C        7.9127518549   28.6647180305   10.4014672310
C        6.2535743199   30.4565346845   11.3329765767
C        8.8950981983   30.7327382157   11.7368254753
C        6.3243027680   26.4967219795   11.9357949194
C        4.7422365274   28.3597106732   12.8788447575
C        6.0090357857   26.7402603619   14.5987116497
C        9.3538832655   26.3792022812   11.7560249018
C       10.5733962538   28.3240030186   13.0734766915
C        9.2160771279   26.4383729564   14.3695630525
C        7.8917562934   31.4028691185   14.6443947589
C        5.3144673107   31.0310364781   14.1316668627
C        6.5070518305   29.6266171664   16.0268605328
29   
Iteration 3 Energy -1909.23648601
Fe       7.6227299847   29.5154137778   11.9217341709
Fe       6.3620136314   27.7430158750   13.1830311171
Fe       8.9819988068   27.5656519560   13.0334557982
Fe       6.8087858072   30.0526359623   14.3507724874
N        7.8813782403   28.7971230681   13.6908064270
O        8.0770900086   28.1984599384    9.3095156049
O        5.3675048093   31.1050525349   10.8484624684
O        9.7280603288   31.5711589260   11.5453176663
O        6.1909629601   25.6395439198   11.1064506491
O        3.6123130283   28.6995027845   12.6537006784
O        5.7109027571   26.0433893056   15.5233999241
O        9.6342248099   25.5711387554   10.9080855118
O       11.6598037580   28.8139773379   13.1131712046
O        9.3896479596   25.6769284877   15.2677419485
O        8.6583709151   32.2932946776   14.8801177466
O        4.3321580778   31.6890523183   14.0310068152
O        6.3402582326   29.3530292760   17.1840097203
C        7.9045880869   28.6740811872   10.3971309652
C        6.2533632377   30.4615300625   11.3378066256
C        8.8895697713   30.7366128807   11.7357631408
C        6.3175646802   26.5003750324   11.9324333001
C        4.7427155667   28.3701566983   12.8839675583
C        6.0024279195   26.7388405437   14.5917068907
C        9.3544738047   26.3790060185   11.7429738518
C       10.5739154367   28.3151388516   13.0675052533
C        9.2190418321   26.4328705044   14.3565056458
C        7.8975583180   31.3970601467   14.6587920900
C        5.3166604299   31.0207396438   14.1449725537
C        6.5173766678   29.6273280083   16.0330843508
29   
Iteration 4 Energy -1909.23661956
Fe       7.6225607159   29.5182101636   11.9230169165
Fe       6.3585817386   27.7448375772   13.1821056369
Fe       8.9800925724   27.5589357594   13.0217200270
Fe       6.8182154072   30.0487687642   14.3571450656
N        7.8843805109   28.7922957629   13.6865240902
O        8.0629748358   28.2176290836    9.3001195409
O        5.3732161287   31.1211162859   10.8571461260
O        9.7193055818   31.5803557691   11.5341125393
O        6.1774604413   25.6427108553   11.1047111153
O        3.6101805817   28.7130331783   12.6667290464
O        5.6917206546   26.0333314238   15.5099214502
O        9.6352966454   25.5691260957   10.8926092186
O       11.6643470475   28.7951594610   13.1097003162
O        9.3978920558   25.6644406407   15.2501645179
O        8.6681662352   32.2842824848   14.9060538418
O        4.3357698906   31.6798677956   14.0555637191
O        6.3601892838   29.3647970690   17.1963233215
C        7.8952854530   28.6831915683   10.3930521423
C        6.2541057927   30.4700747580   11.3452885914
C        8.8868105693   30.7412493048   11.7354974979
C        6.3087740013   26.5047497896   11.9289146678
C        4.7417104705   28.3824540438   12.8901818596
C        5.9932467030   26.7358903293   14.5855688617
C        9.3495744613   26.3766372270   11.7269332543
C       10.5735840804   28.3040629275   13.0598569182
C        9.2185240493   26.4237119973   14.3423746344
C        7.9097730236   31.3897299897   14.6718237852
C        5.3234344960   31.0143893240   14.1591410153
C        6.5322865456   29.6270689451   16.0411225180
29   
Iteration 5 Energy -1909.23675763
Fe       7.6232779854   29.5229694131   11.9260537357
Fe       6.3509104702   27.7506603192   13.1816098264
Fe       8.9724214578   27.5447507503   13.0014725617
Fe       6.8388095140   30.0433525996   14.3679388362
N        7.8896587790   28.7831311134   13.6792200097
O        8.0333483518   28.2441578760    9.2879431048
O        5.3842589472   31.1525613394   10.8794710062
O        9.7117929262   31.5898247136   11.5210687785
O        6.1511658071   25.6543944256   11.1001597684
O        3.6073877307   28.7435077738   12.6889276542
O        5.6560811269   26.0193870061   15.4863263567
O        9.6228054733   25.5642924722   10.8624696153
O       11.6662014660   28.7597125486   13.1003494084
O        9.4008815046   25.6397081927   15.2189428870
O        8.6988037633   32.2637313694   14.9425144227
O        4.3532060393   31.6746410600   14.0972796885
O        6.3997079544   29.3794430119   17.2148921223
C        7.8778907614   28.6969927797   10.3875999580
C        6.2584565439   30.4882344483   11.3604565300
C        8.8866263090   30.7466045365   11.7354219679
C        6.2897677075   26.5152446007   11.9238372389
C        4.7388275907   28.4070756184   12.9017782949
C        5.9739610103   26.7327106371   14.5756245898
C        9.3337733203   26.3689359551   11.6984682054
C       10.5699236012   28.2805792999   13.0450073373
C        9.2118546754   26.4037497477   14.3172346715
C        7.9392593668   31.3753706042   14.6915890637
C        5.3429861070   31.0108609859   14.1848589303
C        6.5634138332   29.6255228552   16.0549059182
29   
Iteration 6 Energy -1909.23690068
Fe       7.6253965880   29.5283325419   11.9299522131
Fe       6.3380998724   27.7627064642   13.1826106999
Fe       8.9569681305   27.5226705476   12.9765522850
Fe       6.8709419994   30.0390634430   14.3812118258
N        7.8964724414   28.7704205850   13.6705033463
O        7.9883511196   28.2674834572    9.2768677639
O        5.4022664012   31.1977131180   10.9130875904
O        9.7139997819   31.5913794852   11.5098010963
O        6.1101077726   25.6770619874   11.0938073299
O        3.6041911251   28.7931626705   12.7161599126
O        5.6068494351   26.0087307761   15.4578451212
O        9.5889002518   25.5532161801   10.8224352858
O       11.6615092978   28.7107931193   13.0841009779
O        9.3893439056   25.6037073730   15.1805163257
O        8.7571685538   32.2311354331   14.9778644186
O        4.3913045426   31.6849184537   14.1504268815
O        6.4561824084   29.3884614660   17.2346072786
C        7.8533387905   28.7105775585   10.3825567095
C        6.2686077030   30.5150655718   11.3812072392
C        8.8928863460   30.7475525592   11.7344344853
C        6.2592946658   26.5338043767   11.9191505613
C        4.7335159615   28.4444122350   12.9172752960
C        5.9445455199   26.7340432968   14.5645283728
C        9.3036563756   26.3534644132   11.6631583149
C       10.5606600764   28.2442436093   13.0241532978
C        9.1949036557   26.3732184480   14.2855400708
C        7.9886789857   31.3550725713   14.7126048701
C        5.3794612759   31.0175781236   14.2193475050
C        6.6098574539   29.6221175768   16.0711158188
29   
Iteration 7 Energy -1909.23711986
Fe       7.6314782947   29.5381402811   11.9371029908
Fe       6.3044528284   27.7987148936   13.1888876307
Fe       8.9112076907   27.4666532191   12.9216570106
Fe       6.9542663489   30.0332164307   14.4090865421
N        7.9113139032   28.7401681809   13.6513601772
O        7.8741332198   28.3048807371    9.2583036743
O        5.4542808346   31.3075514645   10.9936961209
O        9.7367319643   31.5763585463   11.4857572285
O        6.0025637640   25.7402977427   11.0832645810
O        3.5986326077   28.9223067732   12.7793630201
O        5.4910227647   26.0037149418   15.4012923028
O        9.4822812984   25.5178827832   10.7328381340
O       11.6393475729   28.5928534169   13.0385038791
O        9.3380453160   25.5167274419   15.0977247152
O        8.9186812225   32.1460917206   15.0383191178
O        4.5059696514   31.7344361915   14.2723346471
O        6.5951395495   29.3907281412   17.2710787004
C        7.7923152407   28.7340800772   10.3735820838
C        6.3000154666   30.5800756784   11.4288610665
C        8.9166087215   30.7379431297   11.7274321369
C        6.1801364719   26.5852816690   11.9138762416
C        4.7201115415   28.5393448087   12.9555100903
C        5.8711891059   26.7507755375   14.5453006325
C        9.2165370179   26.3092147609   11.5863779234
C       10.5303534961   28.1515585608   12.9724729467
C        9.1407090719   26.2977781950   14.2155520636
C        8.1200551430   31.3048687861   14.7509235995
C        5.4831055926   31.0497973831   14.2997341377
C        6.7267756377   29.6106645584   16.1032301570
29   
Iteration 8 Energy -1909.23740137
Fe       7.6318867896   29.5366933327   11.9345756918
Fe       6.2964574635   27.8100273127   13.1946863251
Fe       8.8959999656   27.4528729596   12.9152580515
Fe       6.9764738422   30.0389922530   14.4110995651
N        7.9137947118   28.7358953508   13.6489450300
O        7.8455317791   28.2893015972    9.2597211526
O        5.4673439328   31.3298164591   11.0069632175
O        9.7522790353   31.5585041283   11.4785106445
O        5.9753273410   25.7559497820   11.0878057211
O        3.5958586812   28.9493773440   12.7924310353
O        5.4786245400   26.0178137935   15.4078544715
O        9.4382483241   25.5016939686   10.7210078592
O       11.6266383527   28.5716303838   13.0193991519
O        9.3102383918   25.5007073543   15.0914788069
O        8.9653043853   32.1334639266   15.0276401937
O        4.5478630158   31.7695891322   14.2935613068
O        6.6280603521   29.3778347436   17.2700862203
C        7.7765144637   28.7266562816   10.3726639733
C        6.3090839661   30.5926668010   11.4338358141
C        8.9257452518   30.7263637487   11.7178424117
C        6.1612448493   26.5974771474   11.9201184018
C        4.7147368328   28.5576179001   12.9654609755
C        5.8593747694   26.7632210337   14.5513152459
C        9.1867423166   26.2928456836   11.5783060067
C       10.5185400808   28.1299787293   12.9581461675
C        9.1208324768   26.2819578936   14.2083794004
C        8.1553606546   31.3003062846   14.7471708667
C        5.5171779141   31.0736362102   14.3147192053
C        6.7561769531   29.6092142480   16.1044408691
29   
Iteration 9 Energy -1909.23813699
Fe       7.6302712722   29.5241683352   11.9170003403
Fe       6.2397355598   27.8983000634   13.2400579923
Fe       8.7834929076   27.3520839365   12.8669768525
Fe       7.1431192380   30.0721368417   14.4234091986
N        7.9317443345   28.7007401582   13.6304053323
O        7.6391286535   28.2074442683    9.2652855676
O        5.5663064298   31.4849812725   11.1075686216
O        9.8523563376   31.4211375919   11.4071787167
O        5.7662465253   25.8714519829   11.1358573628
O        3.5889706711   29.1726120933   12.9046217522
O        5.3929553590   26.1355019958   15.4673423285
O        9.1170503273   25.3853130475   10.6429578641
O       11.5392634731   28.4005836950   12.8682051487
O        9.1172228906   25.3819457835   15.0405444488
O        9.2870161169   32.0371442271   14.9558124624
O        4.8732086658   32.0107939936   14.4388878806
O        6.8574953002   29.2730464867   17.2526164763
C        7.6556613154   28.6829210243   10.3657239752
C        6.3722105488   30.6784500934   11.4785293840
C        8.9835825969   30.6337774194   11.6452900376
C        6.0216774315   26.6928581279   11.9715727220
C        4.6859261080   28.7107319443   13.0461260135
C        5.7797081175   26.8672929881   14.6026345161
C        8.9632940736   26.1770071017   11.5210726924
C       10.4297129676   27.9665036732   12.8458694107
C        8.9765490812   26.1671483295   14.1527045001
C        8.4106560832   31.2566931408   14.7188082954
C        5.7800480445   31.2332858403   14.4158776415
C        6.9628517889   29.5860472666   16.1044872603
29   
Iteration 10 Energy -1909.23817591
Fe       7.6201992714   29.5101892110   11.9070049902
Fe       6.2719591334   27.8613972081   13.2372657385
Fe       8.8383249589   27.4062782184   12.9263544299
Fe       7.0557007428   30.0930580188   14.3966136747
N        7.9193866813   28.7368658987   13.6531998343
O        7.7643353854   28.1513705592    9.2793705933
O        5.4866925447   31.3627382841   11.0246089243
O        9.8355336961   31.4233565410   11.4269298226
O        5.8607395512   25.7962007350   11.1564994478
O        3.5842166725   29.0381957825   12.8412624390
O        5.5324049363   26.1474544937   15.5415125170
O        9.2217844599   25.4055864532   10.7397173818
O       11.5737257978   28.5145741485   12.8961070760
O        9.1773742226   25.4684949695   15.1301322319
O        9.1220809043   32.1503896481   14.8825457249
O        4.7577435274   31.9981533007   14.3072447245
O        6.7131462291   29.2636202936   17.2107731132
C        7.7184604843   28.6463656607   10.3716305150
C        6.3250225282   30.6063262396   11.4306945269
C        8.9605554884   30.6351479599   11.6467881477
C        6.0952228338   26.6333880211   11.9842374395
C        4.6920785540   28.6095027389   13.0085986426
C        5.8655169363   26.8529948261   14.6317588537
C        9.0556677970   26.2117548992   11.6047479956
C       10.4711950239   28.0560425709   12.8893824854
C        9.0420444093   26.2420350097   14.2285132506
C        8.2764144852   31.3284578253   14.6759364100
C        5.6711088044   31.2265581512   14.3323117313
C        6.8388252169   29.6056062810   16.0716813800
29   
Iteration 11 Energy -1909.23860877
Fe       7.6227849674   29.5180101890   11.9140112675
Fe       6.2567875354   27.8754321857   13.2373251187
Fe       8.8201549780   27.3835238943   12.8939129716
Fe       7.0904618925   30.0801033459   14.4126275025
N        7.9256917586   28.7196348085   13.6414623010
O        7.7182957148   28.2056911204    9.2613852687
O        5.5125707097   31.4125316212   11.0668901927
O        9.8334867644   31.4295023985   11.4104840727
O        5.8095302582   25.8232000696   11.1513685022
O        3.5835843806   29.0949214810   12.8763260676
O        5.4675516160   26.1367372190   15.5054577130
O        9.1902386315   25.3973534747   10.6922860150
O       11.5717647094   28.4525846333   12.8786752425
O        9.1751106686   25.4242956381   15.0763953708
O        9.1831823607   32.1014175267   14.9337882112
O        4.8034802571   31.9997647766   14.3701397516
O        6.7753138211   29.2720321519   17.2367994330
C        7.6924354968   28.6758856723   10.3644066213
C        6.3373409174   30.6360644683   11.4602040736
C        8.9660529225   30.6387261469   11.6500229891
C        6.0572013191   26.6571359405   11.9775660839
C        4.6890272307   28.6558500558   13.0277414074
C        5.8285970381   26.8566742956   14.6178915672
C        9.0211543811   26.1999968514   11.5599659008
C       10.4598131619   28.0159040418   12.8647892160
C        9.0245444939   26.2077130434   14.1861006319
C        8.3312518829   31.2934052448   14.7035577213
C        5.7123318686   31.2236733379   14.3712002377
C        6.8877198845   29.5943379220   16.0906430812
29   
Iteration 12 Energy -1909.23872687
Fe       7.6197247770   29.5166730461   11.9129686717
Fe       6.2466763314   27.8900478375   13.2462023245
Fe       8.8024199930   27.3666730087   12.8786928635
Fe       7.1205336131   30.0820314196   14.4185002694
N        7.9299055679   28.7118414111   13.6361393650
O        7.6845892241   28.2179851391    9.2528808887
O        5.5228605959   31.4374746556   11.0934084620
O        9.8409339937   31.4088598266   11.3861290539
O        5.7636374764   25.8410742844   11.1651299930
O        3.5818937330   29.1347049970   12.9100228712
O        5.4529763627   26.1555415863   15.5159088974
O        9.1337462871   25.3781014750   10.6730563839
O       11.5640267538   28.4091820688   12.8397571753
O        9.1609456507   25.3974878696   15.0520973441
O        9.2332392561   32.0829704097   14.9381851562
O        4.8693041667   32.0439953494   14.4018972063
O        6.8163606899   29.2506221191   17.2366583210
C        7.6688276191   28.6803601370   10.3593286511
C        6.3413525683   30.6499262995   11.4773833572
C        8.9707743397   30.6243813445   11.6373726477
C        6.0271756135   26.6733977513   11.9879065103
C        4.6849591916   28.6859372475   13.0488737319
C        5.8177576609   26.8745826395   14.6288888152
C        8.9786227014   26.1829362878   11.5415937104
C       10.4467147160   27.9845385561   12.8353200728
C        9.0071483725   26.1861027929   14.1666939222
C        8.3765391477   31.2807209149   14.7067744586
C        5.7619172450   31.2495005891   14.3925839015
C        6.9218980319   29.5844521303   16.0930696600
29   
Iteration 13 Energy -1909.23882115
Fe       7.6134899642   29.5139362484   11.9115392226
Fe       6.2421648932   27.8973029352   13.2550086370
Fe       8.7950107238   27.3604303501   12.8681078852
Fe       7.1372028267   30.0847252848   14.4226958898
N        7.9329787716   28.7097084884   13.6329856613
O        7.6700046016   28.2336811884    9.2427592546
O        5.5150839298   31.4414939480   11.1132400799
O        9.8386003230   31.3926660971   11.3572665948
O        5.7287332668   25.8464249804   11.1832963217
O        3.5787700945   29.1511494981   12.9439102866
O        5.4623445505   26.1741638317   15.5381996760
O        9.0905849938   25.3647058787   10.6641609597
O       11.5653113492   28.3792672906   12.7960651741
O        9.1720473765   25.3822051235   15.0307833534
O        9.2550903132   32.0796780319   14.9435945579
O        4.9194499552   32.0847595563   14.4177008433
O        6.8350884932   29.2267592232   17.2327233911
C        7.6532618757   28.6856735931   10.3533971585
C        6.3334020117   30.6516579522   11.4924185752
C        8.9680420300   30.6131806950   11.6239685418
C        6.0058542022   26.6796180247   12.0004962694
C        4.6822021356   28.6996632434   13.0692677661
C        5.8230084935   26.8886271293   14.6454457022
C        8.9477343597   26.1748402417   11.5304141558
C       10.4421040226   27.9675935978   12.8054369532
C        9.0077705227   26.1768299943   14.1521826995
C        8.4011088680   31.2756507396   14.7101677306
C        5.7951037921   31.2718203195   14.4037108187
C        6.9359129508   29.5738893426   16.0924807142
29   
Iteration 14 Energy -1909.23886015
Fe       7.6096374003   29.5125111704   11.9105794965
Fe       6.2435389370   27.8963727525   13.2583297885
Fe       8.7967618051   27.3637082000   12.8655190877
Fe       7.1386111017   30.0859614358   14.4237870123
N        7.9341781513   28.7119609611   13.6324859162
O        7.6690016885   28.2368731840    9.2398567505
O        5.5033388369   31.4342228157   11.1189771128
O        9.8324413686   31.3899177360   11.3436000744
O        5.7201271127   25.8441288158   11.1906715714
O        3.5770501533   29.1465756474   12.9595331042
O        5.4792439057   26.1811586740   15.5527909082
O        9.0746190156   25.3633898825   10.6637640689
O       11.5683127513   28.3775719711   12.7740980534
O        9.1903433471   25.3830345315   15.0230378623
O        9.2542118786   32.0823662154   14.9483216621
O        4.9309484205   32.0972580764   14.4178888519
O        6.8323766574   29.2153562935   17.2292952183
C        7.6493787745   28.6869382950   10.3512278915
C        6.3250588221   30.6473395748   11.4969745910
C        8.9630258135   30.6114573123   11.6169782540
C        6.0012621338   26.6776736359   12.0060740713
C        4.6817957286   28.6965680245   13.0782585193
C        5.8333989449   26.8916095439   14.6543262665
C        8.9389689046   26.1763544536   11.5285684068
C       10.4439705544   27.9688585151   12.7915073860
C        9.0183679995   26.1798789375   14.1479008268
C        8.4027494072   31.2760481883   14.7136111573
C        5.8011763656   31.2784660494   14.4044940805
C        6.9335654942   29.5685418756   16.0909666906
29   
Iteration 15 Energy -1909.23890603
Fe       7.6045347648   29.5124088341   11.9096832042
Fe       6.2470699080   27.8928167248   13.2612327799
Fe       8.8009593981   27.3707851290   12.8606010163
Fe       7.1394621406   30.0854954701   14.4260824474
N        7.9364385706   28.7155735332   13.6309614598
O        7.6635957122   28.2402235515    9.2374904016
O        5.4859327403   31.4248245888   11.1278519515
O        9.8198679811   31.3937639706   11.3270673566
O        5.7102782251   25.8415233771   11.1963839344
O        3.5754008553   29.1366611626   12.9829932582
O        5.5057418073   26.1860509369   15.5695724122
O        9.0515175081   25.3656276821   10.6604002739
O       11.5715570992   28.3836880853   12.7426546289
O        9.2235106179   25.3878407906   15.0103972796
O        9.2541075810   32.0797750841   14.9626335115
O        4.9394075786   32.1054149911   14.4200651291
O        6.8261561532   29.1996560954   17.2258711217
C        7.6431942466   28.6899915218   10.3489883762
C        6.3132700864   30.6423506426   11.5029809186
C        8.9538326932   30.6144735454   11.6079958151
C        5.9960233699   26.6741766695   12.0110432969
C        4.6821890920   28.6890483244   13.0913561238
C        5.8498134472   26.8914999043   14.6636206338
C        8.9281462434   26.1813397195   11.5242793766
C       10.4474561211   27.9755567301   12.7706422837
C        9.0388141695   26.1869140183   14.1400745654
C        8.4037847262   31.2732848548   14.7235878485
C        5.8058108227   31.2824782611   14.4071481960
C        6.9295873928   29.5588583372   16.0897646273
29   
Iteration 16 Energy -1909.23895853
Fe       7.5988603982   29.5150316405   11.9092023997
Fe       6.2512144167   27.8886738121   13.2628781702
Fe       8.8053131604   27.3785622428   12.8514471670
Fe       7.1429732833   30.0821232907   14.4305115773
N        7.9401560631   28.7185069681   13.6273603465
O        7.6478051181   28.2455329930    9.2356413424
O        5.4677775766   31.4198379850   11.1420797050
O        9.8023355084   31.4054218163   11.3108124041
O        5.6944694397   25.8423999394   11.1986411766
O        3.5749085504   29.1287212732   13.0136853323
O        5.5358426687   26.1870604862   15.5832798038
O        9.0195640841   25.3694968104   10.6512336155
O       11.5727803225   28.3948631872   12.7021866227
O        9.2665525079   25.3942205832   14.9918241135
O        9.2625254661   32.0650759272   14.9892001384
O        4.9490221700   32.1091322726   14.4298275805
O        6.8218144322   29.1775643956   17.2233261471
C        7.6318119420   28.6958721412   10.3470142911
C        6.3009490296   30.6408054679   11.5116894614
C        8.9417773752   30.6229250782   11.5986581832
C        5.9869605576   26.6724155426   12.0135810992
C        4.6835838241   28.6825544118   13.1083315571
C        5.8682997398   26.8884216251   14.6702558478
C        8.9132831076   26.1871858693   11.5152574139
C       10.4501730413   27.9848163928   12.7421167559
C        9.0652431849   26.1947898835   14.1267828335
C        8.4097939625   31.2634111200   14.7415274892
C        5.8130570964   31.2836524237   14.4153756607
C        6.9286127447   29.5430266688   16.0896956492
29   
Iteration 17 Energy -1909.23902970
Fe       7.5912635340   29.5225338314   11.9094444362
Fe       6.2570806150   27.8827749160   13.2619488152
Fe       8.8118280871   27.3891115492   12.8353242336
Fe       7.1486357761   30.0735656330   14.4388522200
N        7.9461369440   28.7210154673   13.6204574071
O        7.6173971979   28.2560372030    9.2342043391
O        5.4448991429   31.4193830829   11.1649090485
O        9.7746438818   31.4314013550   11.2953467517
O        5.6685724934   25.8476610915   11.1957643391
O        3.5763838253   29.1214370659   13.0566886143
O        5.5774893285   26.1804392450   15.5926764802
O        8.9757657354   25.3759963557   10.6345112247
O       11.5719113309   28.4174927064   12.6426098888
O        9.3323085703   25.4062566757   14.9633687273
O        9.2799155099   32.0314133716   15.0389704164
O        4.9595745299   32.1064202893   14.4514182280
O        6.8165070337   29.1392710343   17.2205677917
C        7.6121915609   28.7071196536   10.3454197432
C        6.2850955151   30.6435630363   11.5254447308
C        8.9233516099   30.6413757799   11.5893735127
C        5.9718579669   26.6727235764   12.0117651324
C        4.6870236251   28.6762043906   13.1319139049
C        5.8937200777   26.8794346052   14.6725018889
C        8.8937617089   26.1954172808   11.4993307858
C       10.4526053281   28.0016403614   12.6986172594
C        9.1056881863   26.2066738590   14.1045677488
C        8.4207477502   31.2418112944   14.7742945856
C        5.8225295570   31.2798657102   14.4324909807
C        6.9285737704   29.5140611684   16.0906400949
29   
Iteration 18 Energy -1909.23910834
Fe       7.5839277653   29.5343815825   11.9108088705
Fe       6.2628794788   27.8767213807   13.2568117915
Fe       8.8193044604   27.3997344026   12.8169246528
Fe       7.1530197719   30.0608194446   14.4494731214
N        7.9522120541   28.7219961619   13.6122536778
O        7.5813839164   28.2692595818    9.2347551284
O        5.4248102099   31.4254857058   11.1890814205
O        9.7452002560   31.4670884833   11.2917066243
O        5.6403914734   25.8571245650   11.1854237347
O        3.5800319857   29.1174495625   13.0964729969
O        5.6199184982   26.1621865121   15.5890640290
O        8.9387827730   25.3833006166   10.6159409379
O       11.5674081712   28.4512928345   12.5802746115
O        9.4036103530   25.4243431659   14.9353652458
O        9.2989871164   31.9852891134   15.1011162118
O        4.9662476781   32.0963959557   14.4806578726
O        6.8089344810   29.0885159995   17.2167496173
C        7.5900331958   28.7210554417   10.3456925950
C        6.2706344374   30.6514568875   11.5401142274