47   
Iteration 0 Energy -1811.24669918
Fe      -1.9166460000    4.6759660000    2.9615510000
S       -0.4938820000    3.0052800000    2.1955750000
N       -0.6246500000    5.9713540000    2.1763840000
N       -0.7457360000    4.6006020000    4.6439480000
C        0.3092180000    6.4835120000    1.7400890000
C       -1.0960570000    5.1985470000    5.8028620000
H       -1.9281460000    5.6531390000    5.8461010000
C       -0.2949250000    5.1777020000    6.9273040000
H       -0.5661640000    5.6298890000    7.7178010000
C        0.8996370000    4.4946110000    6.8906990000
H        1.4555850000    4.4497130000    7.6597540000
C        1.2721210000    3.8772630000    5.7146080000
H        2.0907830000    3.3962130000    5.6636690000
C        0.4434830000    3.9632910000    4.6086460000
C        0.8884320000    3.3889970000    3.2908750000
H        1.4080610000    2.5631950000    3.4567220000
H        1.4868510000    4.0376130000    2.8419040000
C       -1.1630420000    1.5276540000    3.0288370000
H       -0.7873700000    0.7095490000    2.6168260000
H       -0.9106370000    1.5369550000    3.9862470000
B        1.6436130000    7.1243510000    1.1855680000
H        1.8369900000    7.9509550000    1.6750530000
H        1.5373140000    7.3255900000    0.2321860000
H        2.3830200000    6.4925720000    1.3054510000
S       -3.3394110000    3.0052800000    3.7275260000
N       -3.0875570000    4.6006020000    1.2791530000
C       -2.7372350000    5.1985470000    0.1202390000
H       -1.9051470000    5.6531390000    0.0770000000
C       -3.5383670000    5.1777020000   -1.0042030000
H       -3.2671280000    5.6298890000   -1.7947000000
C       -4.7329300000    4.4946110000   -0.9675980000
H       -5.2888780000    4.4497130000   -1.7366530000
C       -5.1054140000    3.8772630000    0.2084930000
H       -5.9240760000    3.3962130000    0.2594320000
C       -4.2767760000    3.9632910000    1.3144550000
C       -4.7217240000    3.3889970000    2.6322260000
H       -5.2413530000    2.5631950000    2.4663790000
H       -5.3201430000    4.0376130000    3.0811970000
C       -2.6702510000    1.5276540000    2.8942640000
H       -3.0459230000    0.7095490000    3.3062750000
H       -2.9226550000    1.5369550000    1.9368540000
N       -3.2086420000    5.9713540000    3.7467170000
C       -4.1425100000    6.4835120000    4.1830120000
B       -5.4769060000    7.1243510000    4.7375330000
H       -5.6702830000    7.9509550000    4.2480480000
H       -5.3706060000    7.3255900000    5.6909160000
H       -6.2163130000    6.4925720000    4.6176500000
47   
Iteration 1 Energy -1811.37965991
Fe      -1.9163976363    4.6822620842    2.9611729705
S       -0.4241288808    2.9487167905    2.2572006879
N       -0.6286269071    5.9741939979    2.1732514210
N       -0.6645940432    4.6097706871    4.7363232214
C        0.3109368861    6.4863057233    1.7381364465
C       -0.9971369095    5.2367276360    5.8843165276
H       -1.8400088643    5.7183942377    5.9177622007
C       -0.1908904273    5.2220955614    7.0059755000
H       -0.4534670155    5.7055129353    7.8075494660
C        0.9906409924    4.5116944731    6.9722507226
H        1.5644849379    4.4681301529    7.7556131996
C        1.3420353550    3.8639896845    5.8020240285
H        2.1691272409    3.3546496841    5.7543255196
C        0.5083331276    3.9459831914    4.6964542230
C        0.9400079936    3.3380887434    3.3838322252
H        1.4535893783    2.4953133446    3.5699974351
H        1.5593838814    3.9814282404    2.9221131801
C       -1.1624143091    1.4837304535    3.0587687059
H       -0.7742610277    0.6507167510    2.6529895614
H       -0.9434781366    1.4905814202    4.0396469180
B        1.6435846772    7.1244711507    1.1855741417
H        1.8406735434    7.9753503931    1.6910201092
H        1.5317828725    7.3306129608    0.2038002678
H        2.4028144502    6.4710413484    1.3105607888
S       -3.4114625912    2.9480426315    3.6680334869
N       -3.1693039119    4.6107210483    1.1882111483
C       -2.8363928037    5.2377264248    0.0402713481
H       -1.9938573655    5.7200116373    0.0073426288
C       -3.6416953304    5.2223458991   -1.0820816253
H       -3.3788607031    5.7057930856   -1.8835724432
C       -4.8226628846    4.5111454837   -1.0491249933
H       -5.3958955463    4.4669902799   -1.8329089279
C       -5.1743849754    3.8634005339    0.1210339534
H       -6.0011616234    3.3534824480    0.1679365685
C       -4.3417215666    3.9460103770    1.2273987352
C       -4.7742667714    3.3375735878    2.5397514926
H       -5.2870422387    2.4945005492    2.3528007509
H       -5.3945504130    3.9804034148    3.0009370096
C       -2.6726807471    1.4839217041    2.8654677779
H       -3.0611183789    0.6505668313    3.2702678120
H       -2.8911909748    1.4918141795    1.8844976787
N       -3.2048440470    5.9743067596    3.7499388925
C       -4.1443231206    6.4863694099    4.1850448204
B       -5.4769720008    7.1244766933    4.7376152058
H       -5.6739927958    7.9753525345    4.2321223271
H       -5.3651673229    7.3307043811    5.7193675210
H       -6.2362199699    6.4710800063    4.6125569895
47   
Iteration 2 Energy -1811.52490561
Fe      -1.9139759818    4.6900558113    2.9595548939
S       -0.4398779323    2.7896883126    2.2460437548
N       -0.6334107901    5.9737924129    2.1598943323
N       -0.7265365817    4.5402046078    4.6306992430
C        0.3160910938    6.4893225046    1.7312656355
C       -1.0931321049    5.2171715930    5.7355566666
H       -1.9911114550    5.6737622456    5.7271005493
C       -0.2901439433    5.3060112735    6.8604003230
H       -0.5896984962    5.8430343373    7.6586573678
C        0.9274652127    4.6449023514    6.8680290880
H        1.5219818338    4.6739436240    7.6810975814
C        1.3131078690    3.9433783230    5.7339671549
H        2.1922030235    3.4511925144    5.7084768243
C        0.4733579773    3.9281533001    4.6261581060
C        0.9240592015    3.2715233469    3.3400487556
H        1.4882774908    2.4383704212    3.5615487592
H        1.5252409228    3.9343993895    2.8264236815
C       -1.1623017791    1.3210045797    3.0640960167
H       -0.7546098885    0.4702007284    2.6500381484
H       -0.9434110225    1.3299780531    4.0716861121
B        1.6447316508    7.1253052458    1.1849461350
H        1.8464223633    8.0172139222    1.7191363650
H        1.5225344246    7.3392561315    0.1547173509
H        2.4363836843    6.4335817602    1.3197085786
S       -3.4000241933    2.7884292461    3.6872359123
N       -3.1091998966    4.5474611249    1.2967326614
C       -2.7440276815    5.2237903085    0.1906412544
H       -1.8476839045    5.6835053981    0.1988055479
C       -3.5456136592    5.3082345880   -0.9355348172
H       -3.2468005636    5.8448285730   -1.7344384871
C       -4.7607180908    4.6433667660   -0.9434551397
H       -5.3545551520    4.6688356007   -1.7571468181
C       -5.1447067551    3.9425659728    0.1916903331
H       -6.0222305414    3.4475600598    0.2159064973
C       -4.3066609735    3.9311327497    1.3011493754
C       -4.7586616721    3.2727194558    2.5870810341
H       -5.3196861044    2.4382010761    2.3630015636
H       -5.3631090662    3.9338431960    3.0990341084
C       -2.6768039616    1.3225980257    2.8649547770
H       -3.0864880882    0.4707440160    3.2748505462
H       -2.8939147955    1.3363164368    1.8570232167
N       -3.2029276477    5.9744685036    3.7625920157
C       -4.1509531311    6.4898928257    4.1921337861
B       -5.4792153260    7.1256697505    4.7391191446
H       -5.6804285243    8.0174608138    4.2044516151
H       -5.3569746896    7.3401513295    5.7692174803
H       -6.2709622001    6.4341388266    4.6037230749
47   
Iteration 3 Energy -1811.58538408
Fe      -1.9132285096    4.6903742548    2.9590362855
S       -0.3712325170    2.8860685346    2.3198708402
N       -0.6324641037    5.9752089052    2.1550278899
N       -0.6061506490    4.5941636527    4.8498780838
C        0.3207531097    6.4917173465    1.7289919329
C       -0.9217492542    5.2404225426    5.9883653103
H       -1.8132254487    5.7442093768    6.0087222522
C       -0.0980306710    5.2465069024    7.1022653840
H       -0.3624070972    5.7714355722    7.9414816140
C        1.0874241599    4.5283601135    7.0565677859
H        1.7090642793    4.4931072652    7.8704842516
C        1.4171538944    3.8580982928    5.8842748503
H        2.2864773367    3.3189123128    5.8234170625
C        0.5604430556    3.9261935267    4.7886046349
C        0.9768241451    3.2950646113    3.4727500759
H        1.5120241690    2.4234425403    3.6781353667
H        1.6152548726    3.9567317966    2.9764771485
C       -1.1627767296    1.4270102470    3.0905645323
H       -0.7514020466    0.5605916348    2.6806386473
H       -0.9710187157    1.4323048436    4.1168554691
B        1.6463628804    7.1261238001    1.1844535688
H        1.8499587568    8.0386485020    1.7332484730
H        1.5178061939    7.3435636625    0.1298051686
H        2.4537715600    6.4145210543    1.3243910284
S       -3.4685612266    2.8859443050    3.6139606792
N       -3.2319115958    4.6027757007    1.0781658525
C       -2.9179776320    5.2479626525   -0.0618248658
H       -2.0286431311    5.7553174378   -0.0831553090
C       -3.7400391118    5.2488027940   -1.1769191622
H       -3.4762747303    5.7730839303   -2.0168254215
C       -4.9225612622    4.5266138617   -1.1313965202
H       -5.5432698972    4.4871386501   -1.9458134880
C       -5.2502915245    3.8575489546    0.0422053739
H       -6.1175494328    3.3150214193    0.1023065671
C       -4.3952364396    3.9303633924    1.1391834748
C       -4.8116598217    3.2977119689    2.4552680171
H       -5.3432334178    2.4244292091    2.2480510518
H       -5.4532788305    3.9574723496    2.9498280900
C       -2.6763302588    1.4290215711    2.8394599414
H       -3.0898230158    0.5617662331    3.2454224347
H       -2.8664113877    1.4389200727    1.8128827482
N       -3.2040004527    5.9755916011    3.7675107645
C       -4.1555379774    6.4921526394    4.1945747856
B       -5.4809833277    7.1264896408    4.7398735218
H       -5.6840509184    8.0388638443    4.1904332514
H       -5.3526010399    7.3447043853    5.7943835571
H       -6.2886147543    6.4152050415    4.5991009147
47   
Iteration 4 Energy -1811.66058290
Fe      -1.9015215161    4.7172244418    2.9601292057
S       -0.3043688148    2.5775691937    2.0198090315
N       -0.5850538428    5.9452937019    2.0633467969
N       -0.8292254543    4.5171075428    4.6278822233
C        0.3793750716    6.4849381388    1.6799488070
C       -1.1788485828    5.2194386117    5.7244141070
H       -2.1556212534    5.6905328928    5.6645972989
C       -0.3629145978    5.3405540648    6.8378951890
H       -0.6809252136    5.9375204433    7.6902313868
C        0.8578447444    4.6787644384    6.8215279359
H        1.5303765120    4.7234123320    7.6772227854
C        1.2104708219    3.9501225922    5.6851823436
H        2.1634382208    3.4245060813    5.6624382215
C        0.3557118667    3.8974644729    4.5765488704
C        0.8543879112    3.1580781304    3.3296660028
H        1.4261518898    2.2910751538    3.6774184246
H        1.5138751037    3.8232406346    2.7585467406
C       -1.1105354949    1.2159356528    2.9427267218
H       -0.8103667007    0.2701692608    2.4812588146
H       -0.7196423175    1.2756968916    3.9650735666
B        1.6880748111    7.1372573783    1.1683796562
H        1.8711194956    8.1311790152    1.8004585158
H        1.5289579858    7.3708841913    0.0089986300
H        2.5513131235    6.3293443717    1.3431649637
S       -3.4271237776    2.6316257842    3.8936211348
N       -3.0142455693    4.5535687114    1.2519623898
C       -2.7094971296    5.2394178926    0.1320817833
H       -1.7303771172    5.7087870170    0.1397392307
C       -3.5719053048    5.3474107055   -0.9469826465
H       -3.2851668028    5.9322614421   -1.8185892427
C       -4.7937006269    4.6905202013   -0.8721604303
H       -5.5010063241    4.7262883026   -1.6995793039
C       -5.0999118382    3.9777089677    0.2871264601
H       -6.0503715367    3.4525128315    0.3625335889
C       -4.1957230810    3.9398258952    1.3558704098
C       -4.6365695963    3.2198005153    2.6315681674
H       -5.2305007757    2.3531052247    2.3225454897
H       -5.2625784417    3.8974313310    3.2250843109
C       -2.6706010970    1.2401578303    2.9672171554
H       -2.9915551300    0.3061295315    3.4383996913
H       -3.0696694404    1.3043600847    1.9483665834
N       -3.2590789862    5.9329827267    3.8460419643
C       -4.2177766699    6.4783235318    4.2382536551
B       -5.5249935019    7.1372108471    4.7586934530
H       -5.7078354597    8.1313310506    4.1259319031
H       -5.3658414361    7.3730849952    5.9178255540
H       -6.3932234870    6.3340506594    4.5840007894
47   
Iteration 5 Energy -1811.66495700
Fe      -1.9018826581    4.7493172635    2.9343454383
S       -0.5929605751    2.8225566979    2.2320919951
N       -0.5668718447    5.9431402154    2.0485337604
N       -0.7603233216    4.4529192922    5.0221785034
C        0.4010075180    6.4866755333    1.6725363877
C       -0.9857900512    5.0475743154    6.2054557595
H       -1.9973242803    5.4405987824    6.3499338264
C        0.0055865164    5.1622241464    7.1709636798
H       -0.2280268186    5.6791522266    8.1088120283
C        1.2635784651    4.6143238707    6.9076390230
H        2.0670720384    4.6709116403    7.6526241262
C        1.4886670945    3.9919931797    5.6805657665
H        2.4573983764    3.5465519759    5.4225446302
C        0.4463748402    3.9542469751    4.7495819054
C        0.7452591022    3.3707698941    3.3812270473
H        1.4336580391    2.5217360438    3.5248943122
H        1.2543910672    4.1407411748    2.7728830474
C       -1.3091156704    1.3230266348    3.0244151393
H       -0.9435844665    0.4146829798    2.5179538792
H       -0.9661020974    1.3243475570    4.0724567468
B        1.7080992100    7.1434681405    1.1624455335
H        1.8881036158    8.1568223222    1.8124563507
H        1.5394697780    7.3784325094   -0.0217302894
H        2.5835567549    6.3112616099    1.3447587947
S       -3.6890425682    2.6705912551    3.7849155278
N       -3.1577006982    4.3700110447    1.2701760385
C       -2.6926279119    5.0005544558    0.1795124455
H       -1.6904900413    5.4322222281    0.2728443847
C       -3.4416370204    5.1007121783   -0.9886666119
H       -3.0206124023    5.6447759940   -1.8423366880
C       -4.7057323347    4.5041415201   -1.0334741515
H       -5.3151068282    4.5499390314   -1.9451207353
C       -5.1830900623    3.8436223862    0.0979506789
H       -6.1637471044    3.3522121563    0.1195327948
C       -4.3737031322    3.8219590740    1.2384162936
C       -4.9091393805    3.1812174396    2.5016761679
H       -5.5072805243    2.2993521855    2.2180967233
H       -5.5586641534    3.8944545634    3.0408178387
C       -2.8511348380    1.2910506451    2.9082127653
H       -3.1927018098    0.3256635610    3.3162843646
H       -3.1598211745    1.3753598278    1.8525970749
N       -3.2958882046    5.9319953740    3.8391689990
C       -4.2506441673    6.4820802018    4.2358411852
B       -5.5494248396    7.1447530611    4.7656341005
H       -5.7285404146    8.1589840311    4.1159527198
H       -5.3743724877    7.3802345263    5.9488981820
H       -6.4309182420    6.3182826864    4.5841200505
47   
Iteration 6 Energy -1811.67744082
Fe      -1.9059310083    4.7519134517    2.9390989103
S       -0.4255643527    2.7810251865    2.2375142146
N       -0.5638212605    5.9440829225    2.0529620162
N       -0.7015389134    4.4190257082    4.9446311012
C        0.4030121141    6.4875238656    1.6740568089
C       -1.0070505810    5.0313856143    6.1002263993
H       -2.0166784247    5.4465087934    6.1624050680
C       -0.0913113905    5.1360284032    7.1396513045
H       -0.3843977090    5.6664316038    8.0510393553
C        1.1721627843    4.5597959267    6.9804265529
H        1.9132942238    4.6094184266    7.7856372629
C        1.4809045506    3.9190650742    5.7813277600
H        2.4556797775    3.4520137247    5.6051306581
C        0.5123869989    3.8927401860    4.7733872588
C        0.8850424524    3.2905099427    3.4331581120
H        1.5385126853    2.4238524426    3.6185826834
H        1.4502215196    4.0375779070    2.8487502320
C       -1.2060101732    1.3218310964    3.0411014597
H       -0.8483324336    0.3973074483    2.5618193128
H       -0.8845196506    1.3397326670    4.0943496116
B        1.7096415619    7.1440734636    1.1619128853
H        1.8898414426    8.1572995900    1.8119097637
H        1.5408927059    7.3787475082   -0.0223689010
H        2.5850796900    6.3115472195    1.3444010497
S       -3.5664784475    2.7232415255    3.7583835330
N       -3.1528611622    4.4240974991    1.1423423469
C       -2.7744143136    5.0415971870    0.0098856477
H       -1.7712757795    5.4756675066    0.0214584562
C       -3.6079666416    5.1268665463   -1.0994667885
H       -3.2567141875    5.6597174481   -1.9886065226
C       -4.8685152156    4.5280812459   -1.0402303554
H       -5.5452817728    4.5608754877   -1.9012843102
C       -5.2550034746    3.8820820343    0.1319625056
H       -6.2300102226    3.3923743155    0.2280243810
C       -4.3664212592    3.8727856070    1.2120921654
C       -4.8231431332    3.2450300991    2.5125494427
H       -5.4424264333    2.3671923795    2.2696989550
H       -5.4368800945    3.9695064846    3.0757597874
C       -2.7472273207    1.3109156164    2.9112529597
H       -3.0978934235    0.3598777769    3.3414640463
H       -3.0559283047    1.3727760714    1.8556346016
N       -3.2938850203    5.9319707279    3.8390953055
C       -4.2493717701    6.4810674456    4.2355934725
B       -5.5497332826    7.1443537181    4.7657428398
H       -5.7295398232    8.1587648649    4.1162558330
H       -5.3757216535    7.3802765419    5.9491888962
H       -6.4322633214    6.3183620286    4.5844503480
47   
Iteration 7 Energy -1811.68280134
Fe      -1.9063488691    4.7385965351    2.9452565990
S       -0.3396671540    2.8565920161    2.1537230232
N       -0.5653459324    5.9456221036    2.0485632286
N       -0.6995174041    4.4072702820    4.7454121430
C        0.4035051990    6.4871499892    1.6711876499
C       -1.0955973272    4.9975150930    5.8861231863
H       -2.0974439873    5.4268951211    5.8591703992
C       -0.2820159636    5.0636831127    7.0122341230
H       -0.6356771975    5.5714830161    7.9105842372
C        0.9801079981    4.4712854838    6.9539532957
H        1.6432319570    4.4886647364    7.8215481354
C        1.3859224489    3.8539940539    5.7725123019
H        2.3656493585    3.3797873175    5.6936941230
C        0.5197839871    3.8601341220    4.6745496123
C        0.9789876959    3.2791933472    3.3541919745
H        1.5973213564    2.3904395787    3.5396623113
H        1.5936326984    4.0138862355    2.8116066851
C       -1.1228631703    1.4344548519    3.0173506598
H       -0.7757784585    0.5028343786    2.5509650756
H       -0.7782399425    1.4707319799    4.0595902711
B        1.7143238603    7.1436484065    1.1602379706
H        1.8956097137    8.1549471278    1.8090982716
H        1.5500395778    7.3795150470   -0.0223894301
H        2.5900364388    6.3135185345    1.3427033751
S       -3.4378926891    2.8618466024    3.8129368957
N       -3.1237161465    4.4669144233    1.1708351739
C       -2.7724400737    5.0401918984    0.0055827780
H       -1.7694148080    5.4652725782   -0.0169328857
C       -3.6282848981    5.0926431317   -1.0866136972
H       -3.3067738313    5.5852621907   -2.0048858555
C       -4.8877415321    4.5068114514   -0.9706138139
H       -5.5842248720    4.5131082052   -1.8115126461
C       -5.2458365699    3.9069511763    0.2340725939
H       -6.2212615875    3.4331066860    0.3568043607
C       -4.3388107320    3.9221024851    1.2978058717
C       -4.7585178680    3.3401796257    2.6302892189
H       -5.3900950608    2.4594725866    2.4512009636
H       -5.3442460669    4.0824519699    3.1939138551
C       -2.6632426303    1.4273460303    2.9548766407
H       -3.0030122111    0.4934822215    3.4222591989
H       -3.0130130773    1.4585370430    1.9142374685
N       -3.2840214991    5.9322789357    3.8477582940
C       -4.2442429912    6.4781858002    4.2395851617
B       -5.5519053365    7.1421971814    4.7666108321
H       -5.7343421809    8.1551636957    4.1188039603
H       -5.3840212481    7.3800187829    5.9485249932
H       -6.4362238845    6.3196804928    4.5859695607
47   
Iteration 8 Energy -1811.68227104
Fe      -1.8961585065    4.7489297154    2.9557849561
S       -0.2906641502    2.7212370625    2.1913458626
N       -0.5694738906    5.9875719681    2.0427048993
N       -0.6161118766    4.4658942102    4.6805076448
C        0.4095149121    6.5080244342    1.6661486914
C       -0.9946902551    5.1401175568    5.7822208184
H       -1.9532217431    5.6384723605    5.7120625457
C       -0.2080352631    5.2083111671    6.9264484023
H       -0.5343348466    5.7758719811    7.7888729394
C        1.0097085876    4.5329755458    6.9283553362
H        1.6506197824    4.5516704976    7.8028604848
C        1.3953285725    3.8309271679    5.7910392281
H        2.3400704063    3.3006506133    5.7776148612
C        0.5642431984    3.8261782321    4.6674913534
C        1.0206047485    3.1470173691    3.3946707232
H        1.5959384394    2.2459663419    3.6216669361
H        1.6803612221    3.8227601756    2.8395432926
C       -1.1541296448    1.3298622382    3.0379785594
H       -0.7831235150    0.3977921884    2.6049201793
H       -0.8735290258    1.3593301251    4.0932894623
B        1.7342921848    7.1467156472    1.1539959913
H        1.9239444286    8.1549018878    1.7990483875
H        1.5790702532    7.3819837427   -0.0267347612
H        2.6032091803    6.3133944759    1.3402722471
S       -3.5493157421    2.7122349385    3.7262783621
N       -3.2653070672    4.4439316636    1.2395524554
C       -2.8825216975    5.1111645239    0.1364028202
H       -1.9127387975    5.5885124714    0.1931658052
C       -3.6830575484    5.1941353003   -0.9940008251
H       -3.3515059643    5.7563448169   -1.8576810390
C       -4.9143936518    4.5420274915   -0.9792287104
H       -5.5623746966    4.5767863560   -1.8474304839
C       -5.3009965857    3.8439689464    0.1615279965
H       -6.2525751795    3.3274812012    0.1953690819
C       -4.4537150201    3.8258620818    1.2713628844
C       -4.8862874419    3.1548480174    2.5536970104
H       -5.4777147638    2.2613269430    2.3405023445
H       -5.5155685293    3.8422634405    3.1286981776
C       -2.6826778580    1.3189359994    2.8839433795
H       -3.0391079515    0.3848909183    3.3245884131
H       -2.9690000248    1.3374952625    1.8299578588
N       -3.2670582390    5.9719324959    3.8661785823
C       -4.2406125852    6.4960682309    4.2506531928
B       -5.5655037039    7.1414624158    4.7715486034
H       -5.7564198770    8.1507274361    4.1265235217
H       -5.4104588994    7.3797598104    5.9517332442
H       -6.4425043235    6.3151397366    4.5861523401
47   
Iteration 9 Energy -1811.68571806
Fe      -1.8973454521    4.7509206921    2.9554613818
S       -0.3466611929    2.7547625173    2.1902988556
N       -0.5716471757    5.9885667582    2.0441051318
N       -0.6705807991    4.4479590472    4.7433157165
C        0.4088917886    6.5074978611    1.6667854871
C       -1.0336153918    5.0822317158    5.8734747568
H       -2.0089935799    5.5530787195    5.8491162658
C       -0.2117413185    5.1450853656    6.9918042763
H       -0.5315962850    5.6814151974    7.8771114508
C        1.0260214600    4.5085801779    6.9377447789
H        1.6950280280    4.5252398176    7.7917416212
C        1.3957030282    3.8469460739    5.7705375734
H        2.3545930908    3.3446225212    5.7076968705
C        0.5281837580    3.8449064380    4.6757589113
C        0.9719263020    3.2056060251    3.3760677143
H        1.5804487719    2.3197567082    3.5760721843
H        1.5973658121    3.9106015733    2.8164042316
C       -1.1602213629    1.3363980712    3.0373238240
H       -0.7783743587    0.4084001023    2.6036239715
H       -0.8776363305    1.3648486587    4.0926956208
B        1.7357237112    7.1456108554    1.1538804401
H        1.9273999698    8.1547794968    1.7990563792
H        1.5826594196    7.3814905856   -0.0281537264
H        2.6055723249    6.3114954092    1.3406696594
S       -3.4933260091    2.7475488995    3.7306990593
N       -3.2051371863    4.4267919389    1.1848135802
C       -2.8414618291    5.0529682855    0.0512801234
H       -1.8568371010    5.5043812663    0.0629596290
C       -3.6758704044    5.1293048374   -1.0561202545
H       -3.3539794312    5.6593101087   -1.9444408361
C       -4.9247221281    4.5144873288   -0.9868745251
H       -5.6016457749    4.5437667174   -1.8339490849
C       -5.2927054375    3.8581881124    0.1842184548
H       -6.2573726771    3.3696949945    0.2629994271
C       -4.4109155370    3.8443252526    1.2671553484
C       -4.8348739197    3.2126935497    2.5744805354
H       -5.4581923799    2.3345329637    2.3879485382
H       -5.4318744980    3.9278035280    3.1514075885
C       -2.6828030290    1.3296743318    2.8793735708
H       -3.0538607095    0.3991424810    3.3166860999
H       -2.9719138809    1.3539341622    1.8255956337
N       -3.2657273282    5.9741942303    3.8639619204
C       -4.2405545062    6.4960387071    4.2497830496
B       -5.5665983418    7.1400279693    4.7715289083
H       -5.7592159327    8.1501044947    4.1262779667
H       -5.4132009801    7.3785294236    5.9530128495
H       -6.4438609362    6.3123872843    4.5854770207
47   
Iteration 10 Energy -1811.68591080
Fe      -1.9077796875    4.7788398724    2.9508504052
S       -0.3462465323    2.8467538591    2.2081728958
N       -0.5683613569    5.9697259365    2.0369881859
N       -0.6252650579    4.4281301092    4.7549258707
C        0.4129980824    6.4933126518    1.6636737043
C       -1.0167080453    4.9943444955    5.9074162676
H       -2.0040612132    5.4514600924    5.8923863499
C       -0.2034434553    5.0075200340    7.0343407313
H       -0.5633043408    5.4926148579    7.9392218447
C        1.0533071776    4.4022893844    6.9642838142
H        1.7135822424    4.3914354282    7.8307540074
C        1.4549200821    3.8057494875    5.7704815245
H        2.4220854883    3.3166002927    5.6614997157
C        0.5823755122    3.8504199184    4.6828131411
C        1.0131418297    3.2759379917    3.3542356226
H        1.6493699501    2.3955449799    3.5064472193
H        1.6041945185    4.0213793900    2.8011951169
C       -1.1588232359    1.4145001311    3.0377611660
H       -0.7717675310    0.4839545890    2.6035235305
H       -0.8964257156    1.4251750123    4.1030074543
B        1.7425289288    7.1353811666    1.1543078355
H        1.9375922478    8.1500372000    1.8046063054
H        1.5955556280    7.3736670100   -0.0357684748
H        2.6160658105    6.2944402671    1.3454456342
S       -3.4224249990    2.8850974792    3.7286640906
N       -3.2118586889    4.4372152848    1.1998308567
C       -2.8420294410    4.9858318361    0.0320218221
H       -1.8510391425    5.4356349272    0.0183253901
C       -3.6778098520    4.9926351488   -1.0811234392
H       -3.3364339838    5.4632433149   -2.0009609255
C       -4.9378522718    4.3972744289   -0.9810667784
H       -5.6163432087    4.3803086311   -1.8334664463
C       -5.3181398898    3.8171328244    0.2270991551
H       -6.2865448799    3.3357402382    0.3578723425
C       -4.4225784679    3.8693407883    1.2966893393
C       -4.8258877324    3.3143784623    2.6407150722
H       -5.4752245589    2.4387389771    2.5193485712
H       -5.3900347525    4.0685242426    3.2092678563
C       -2.6746462502    1.4535279630    2.8435933706
H       -3.1035893983    0.5278900058    3.2478392629
H       -2.9367511979    1.5137096278    1.7797432391
N       -3.2751911587    5.9645362550    3.8554867381
C       -4.2492568089    6.4872493301    4.2452799697
B       -5.5741884774    7.1296375635    4.7706653046
H       -5.7715343087    8.1456070096    4.1220013099
H       -5.4218617865    7.3671449560    5.9602253420
H       -6.4520732664    6.2922839239    4.5803442342
47   
Iteration 11 Energy -1811.68782226
Fe      -1.9047815053    4.7918405402    2.9545452865
S       -0.3878531017    2.8292280295    2.1763282888
N       -0.5741918239    5.9903112769    2.0227618299
N       -0.6642204057    4.4111646940    4.7367687973
C        0.4143095539    6.5007245921    1.6534418504
C       -1.0508733201    4.9540114232    5.9033978781
H       -2.0424125216    5.3943354623    5.9001359046
C       -0.2324922327    4.9662069932    7.0263829324
H       -0.5828105410    5.4250865804    7.9446856774
C        1.0313282042    4.3857444197    6.9320104779
H        1.6999450840    4.3747287739    7.7878918993
C        1.4264310879    3.8140357367    5.7234802314
H        2.4023080217    3.3506180798    5.6150180155
C        0.5505714148    3.8493285070    4.6370819549
C        0.9800085454    3.2927572806    3.2955353543
H        1.6462315963    2.4356935680    3.4300066944
H        1.5336184780    4.0585207846    2.7372243943
C       -1.1544061892    1.3965341382    3.0461552643
H       -0.7362079597    0.4773856105    2.6241626978
H       -0.8934764984    1.4337041823    4.1086956980
B        1.7548771245    7.1281005845    1.1517761273
H        1.9566113258    8.1370162054    1.7995785586
H        1.6221392256    7.3668983456   -0.0345288858
H        2.6182328004    6.2846648426    1.3486450790
S       -3.4228850778    2.8177280677    3.7753349235
N       -3.1708597180    4.4127052508    1.1826602839
C       -2.8173305133    4.9404136515   -0.0018743186
H       -1.8194325828    5.3644870442   -0.0402833868
C       -3.6713409337    4.9593222923   -1.0981989407