3    
Climbing Image - Chain 10 Image 4 Energy   -93.2928183767 (+62.547 kcal/mol) RMSGrad 0.034 eV/Ang
C       -0.0349875867   -0.6863252110    0.0000000000
N       -0.6563962553    0.3533546582   -0.0000000000
H        0.6913838413    0.3329705522    0.0000000000
