3    
Climbing Image - Chain 33 Image 4 Energy   -93.2928220030 (+62.547 kcal/mol) RMSGrad 0.019 eV/Ang
C       -0.0587427176   -0.6840266227    0.0000000000
N       -0.6429953943    0.3769243327   -0.0000000000
H        0.7017381082    0.3071022872    0.0000000000
