3    
Climbing Image - Chain 10 Image 4 Energy   -93.2928200293 (+62.546 kcal/mol) RMSGrad 0.026 eV/Ang
C       -0.0350886282   -0.6865766358    0.0000000000
N       -0.6556214205    0.3534197583   -0.0000000000
H        0.6907100479    0.3331568768   -0.0000000000
