29   
Iteration 0 Energy -1909.15405028
Fe       7.6269760000   29.5036960000   11.9337610000
Fe       6.3776610000   27.7442490000   13.1847520000
Fe       8.9605150000   27.5838150000   13.0685210000
Fe       6.7987770000   30.0690230000   14.3243870000
N        7.8731090000   28.8122020000   13.7026690000
O        8.0979200000   28.0938000000    9.4055830000
O        5.3318660000   31.0461010000   10.9236350000
O        9.7406050000   31.5157260000   11.6217430000
O        6.3010080000   25.6898250000   11.0966390000
O        3.6547790000   28.6751230000   12.5988530000
O        5.7678350000   26.0807550000   15.5362690000
O        9.5227220000   25.6263600000   10.9504380000
O       11.6105230000   28.8248940000   13.1142100000
O        9.3272610000   25.7228220000   15.2901650000
O        8.6609610000   32.2849010000   14.7528780000
O        4.3905390000   31.7289620000   13.9207520000
O        6.2970490000   29.3402140000   17.1128010000
C        7.9304810000   28.6065810000   10.4168050000
C        6.2309930000   30.4546240000   11.3439630000
C        8.9226440000   30.7389410000   11.7484500000
C        6.3645000000   26.4869190000   11.9178000000
C        4.7292340000   28.3527300000   12.8498310000
C        6.0155220000   26.7153850000   14.6322610000
C        9.3110310000   26.3752250000   11.7667260000
C       10.5979930000   28.3451160000   13.0861880000
C        9.1993530000   26.4259950000   14.4166150000
C        7.9001200000   31.4243390000   14.6018030000
C        5.3167950000   31.0791020000   14.0803530000
C        6.4886880000   29.6346840000   16.0345710000
29   
Iteration 1 Energy -1909.23166636
Fe       7.6249277537   29.5107616535   11.9240589600
Fe       6.3682379361   27.7417583049   13.1865718186
Fe       8.9736181989   27.5771652904   13.0563318629
Fe       6.7996387926   30.0611495164   14.3350062894
N        7.8756329841   28.8060296686   13.6983565485
O        8.0951184408   28.1471878186    9.3419130121
O        5.3464807958   31.0790025740   10.8674730288
O        9.7540307884   31.5468746602   11.5884133827
O        6.2317572302   25.6498083507   11.1005071283
O        3.6201738793   28.6799551557   12.6257195291
O        5.7481061724   26.0620371831   15.5508093299
O        9.5907433744   25.5849675435   10.9275355853
O       11.6405362856   28.8451206061   13.1138015411
O        9.3498380244   25.6985749585   15.2999954404
O        8.6662928036   32.2977081320   14.8022687485
O        4.3498771542   31.7216371981   13.9685558525
O        6.3116118213   29.3244950556   17.1539148432
C        7.9220609652   28.6487409762   10.4048859110
C        6.2490485287   30.4563703337   11.3315445620
C        8.9074054282   30.7342247877   11.7404041633
C        6.3340899058   26.4897804297   11.9347907243
C        4.7359572829   28.3497509863   12.8705003283
C        6.0136418294   26.7328968837   14.6142039376
C        9.3429539023   26.3766461739   11.7657583673
C       10.5795156405   28.3375058011   13.0797687888
C        9.2077318366   26.4375992824   14.3909101835
C        7.8945565034   31.4098876913   14.6222748088
C        5.3149667127   31.0503147416   14.1109519350
C        6.4989089671   29.6241570275   16.0261952661
29   
Iteration 2 Energy -1909.23613028
Fe       7.6234960247   29.5130881799   11.9215855926
Fe       6.3646191817   27.7422100052   13.1846003068
Fe       8.9806694967   27.5708610618   13.0440816242
Fe       6.8027676828   30.0565208647   14.3444203482
N        7.8786604676   28.8011838536   13.6945584880
O        8.0870405067   28.1774423115    9.3214014149
O        5.3611632249   31.0925421440   10.8484997803
O        9.7396250875   31.5601511517   11.5611057883
O        6.2047115168   25.6407682434   11.1063096220
O        3.6151594713   28.6896378930   12.6417737842
O        5.7280824616   26.0532221256   15.5355898034
O        9.6228072932   25.5743406102   10.9190519209
O       11.6516072063   28.8297052146   13.1142025579
O        9.3751118592   25.6872394500   15.2826901703
O        8.6574561163   32.2981482080   14.8496721596
O        4.3356110564   31.7026018585   14.0062348052
O        6.3252375785   29.3397053270   17.1710308516
C        7.9127538941   28.6647064625   10.4014682077
C        6.2535716513   30.4565226767   11.3329708912
C        8.8950948439   30.7327335922   11.7368201468
C        6.3243091469   26.4967123797   11.9358015263
C        4.7422378977   28.3597004396   12.8788447448
C        6.0090399211   26.7402582937   14.5987174310
C        9.3538887535   26.3791987341   11.7560336548
C       10.5733973970   28.3240061999   13.0734798617
C        9.2160809865   26.4383776661   14.3695720361
C        7.8917491519   31.4028717512   14.6443877624
C        5.3144617237   31.0310314566   14.1316588622
C        6.5070484149   29.6266205135   16.0268576563
29   
Iteration 3 Energy -1909.23648544
Fe       7.6227383944   29.5154124625   11.9217382741
Fe       6.3620114381   27.7430052285   13.1830282702
Fe       8.9819901621   27.5656493259   13.0334628401
Fe       6.8087702354   30.0526346887   14.3507692790
N        7.8813670604   28.7971216066   13.6908117671
O        8.0769362930   28.1983552756    9.3095411758
O        5.3677654060   31.1054289944   10.8485001666
O        9.7280401874   31.5711931845   11.5453625451
O        6.1909770326   25.6395057959   11.1064757098
O        3.6123040107   28.6994274727   12.6536190803
O        5.7109455032   26.0432908623   15.5233469279
O        9.6342265996   25.5711462491   10.9080867424
O       11.6597925038   28.8139807436   13.1131814319
O        9.3896497197   25.6769063011   15.2677293205
O        8.6582965738   32.2933341175   14.8801457628
O        4.3321650306   31.6890783384   14.0309729617
O        6.3402457818   29.3529571360   17.1839899347
C        7.9046011123   28.6740520910   10.3971498654
C        6.2534280137   30.4615936073   11.3377870509
C        8.8895828207   30.7366073960   11.7357820468
C        6.3175710258   26.5003563039   11.9324390860
C        4.7427007560   28.3701149274   12.8839634176
C        6.0024286691   26.7388218044   14.5917001961
C        9.3544694428   26.3790091071   11.7429774356
C       10.5739053449   28.3151398819   13.0675159426
C        9.2190327134   26.4328615114   14.3565059180
C        7.8975195041   31.3970742869   14.6588010409
C        5.3166479827   31.0207412259   14.1449626947
C        6.5173505494   29.6273087336   16.0330749096
29   
Iteration 4 Energy -1909.23661949
Fe       7.6225632294   29.5182190356   11.9230359257
Fe       6.3585810687   27.7448216706   13.1820951969
Fe       8.9800847462   27.5589306064   13.0217254546
Fe       6.8181883264   30.0487504294   14.3571519418
N        7.8843642450   28.7922850619   13.6865391574
O        8.0627925911   28.2175448614    9.3001514122
O        5.3735526620   31.1216306509   10.8572293342
O        9.7192716786   31.5804120273   11.5341990817
O        6.1774837068   25.6426846850   11.1047114589
O        3.6101860303   28.7129722294   12.6666026057
O        5.6917758246   26.0331633695   15.5098165711
O        9.6353288210   25.5691727006   10.8925771576
O       11.6643352326   28.7951634026   13.1097235351
O        9.3979069985   25.6643810044   15.2501190540
O        8.6680485366   32.2843275322   14.9061062443
O        4.3357534173   31.6798583220   14.0555335133
O        6.3601771788   29.3646617714   17.1963050278
C        7.8952886655   28.6831775005   10.3930819587
C        6.2541928494   30.4701901337   11.3452902706
C        8.8868121449   30.7412609440   11.7355487651
C        6.3087891249   26.5047345033   11.9289054819
C        4.7417018768   28.3824146228   12.8901613113
C        5.9932489265   26.7358437580   14.5855391905
C        9.3495784536   26.3766505049   11.7269244367
C       10.5735744785   28.3040615021   13.0598772799
C        9.2185218120   26.4236852903   14.3423598058
C        7.9097040232   31.3897376897   14.6718602191
C        5.3234057666   31.0143650561   14.1591334993
C        6.5322473359   29.6270078745   16.0411169849
29   
Iteration 5 Energy -1909.23675726
Fe       7.6232645790   29.5229996015   11.9261007510
Fe       6.3509104193   27.7506334070   13.1815839085
Fe       8.9724149934   27.5447472214   13.0014667767
Fe       6.8387658090   30.0433000451   14.3679713354
N        7.8896369523   28.7831001464   13.6792519321
O        8.0331715251   28.2441799142    9.2879665209
O        5.3846491212   31.1532403171   10.8796730984
O        9.7117569259   31.5898971283   11.5212304631
O        6.1511951991   25.6544090678   11.1000923793
O        3.6074317722   28.7435055948   12.6887001379
O        5.6561581891   26.0190724284   15.4861088494
O        9.6228866805   25.5644185312   10.8623717701
O       11.6661855008   28.7597250615   13.1003955360
O        9.4008983714   25.6396028345   15.2188454998
O        8.6986659504   32.2637402996   14.9426129494
O        4.3531417766   31.6745552110   14.0972989894
O        6.3997031329   29.3791944327   17.2148850842
C        7.8778692850   28.6970305798   10.3876380397
C        6.2585553627   30.4884222350   11.3605106586
C        8.8866055315   30.7466487314   11.7355351773
C        6.2897916623   26.5152420966   11.9237896476
C        4.7388349800   28.4070560100   12.9017217381
C        5.9739593703   26.7326024422   14.5755417806
C        9.3337901263   26.3689786833   11.6984286451
C       10.5699117317   28.2805839851   13.0450381317
C        9.2118579945   26.4037018000   14.3171886432
C        7.9391553696   31.3753527449   14.6916796699
C        5.3429307185   31.0107885613   14.1848792708
C        6.5633601900   29.6253794333   16.0549144200
29   
Iteration 6 Energy -1909.23690103
Fe       7.6253582562   29.5283992781   11.9300424345
Fe       6.3380787938   27.7626760149   13.1825702908
Fe       8.9569419221   27.5226515825   12.9764990370
Fe       6.8709108122   30.0389606437   14.3813012387
N        7.8964451950   28.7703471007   13.6705514326
O        7.9881771211   28.2677340308    9.2768548276
O        5.4027091852   31.1986254381   10.9135125974
O        9.7139864296   31.5914446806   11.5100389619
O        6.1100916690   25.6771637163   11.0936399885
O        3.6042869523   28.7933008135   12.7158017881
O        5.6068797517   26.0081914659   15.4574305761
O        9.5889990657   25.5534290629   10.8222095574
O       11.6614810255   28.7107711695   13.0841458608
O        9.3893622648   25.6035083571   15.1802987770
O        8.7571546120   32.2309869499   14.9780589021
O        4.3912125185   31.6847355669   14.1506034656
O        6.4562269759   29.3881128904   17.2346497086
C        7.8532535154   28.7107252632   10.3825944258
C        6.2687162129   30.5153676212   11.3813605175
C        8.8928410517   30.7476371485   11.7346323515
C        6.2592873055   26.5338457247   11.9190450899
C        4.7335376733   28.4444655997   12.9171883093
C        5.9444877253   26.7338431664   14.5643563397
C        9.3036546457   26.3535381400   11.6630310889
C       10.5606302167   28.2442281637   13.0241651801
C        9.1948958442   26.3731162185   14.2854121756
C        7.9886069262   31.3549786898   14.7127875537
C        5.3794097014   31.0174510839   14.2194683906
C        6.6098354589   29.6218730472   16.0711707294
29   
Iteration 7 Energy -1909.23711891
Fe       7.6313621066   29.5382399328   11.9372575118
Fe       6.3044748790   27.7985638935   13.1888097979
Fe       8.9112707973   27.4668080964   12.9217135887
Fe       6.9539706909   30.0330735759   14.4091854608
N        7.9111915615   28.7401132185   13.6515289031
O        7.8744047340   28.3053742102    9.2583160894
O        5.4546585660   31.3085902581   10.9944186185
O        9.7367847009   31.5763458542   11.4862209361
O        6.0028147292   25.7403762671   11.0829380533
O        3.5988258049   28.9222538413   12.7784140318
O        5.4913823743   26.0027105755   15.4006583426
O        9.4826993650   25.5183756301   10.7326869467
O       11.6393251593   28.5932202389   13.0386849765
O        9.3381933464   25.5166599251   15.0975730380
O        8.9186051105   32.1457361408   15.0384206691
O        4.5054588766   31.7339849248   14.2724132280
O        6.5947377493   29.3902067893   17.2710757685
C        7.7923158105   28.7343404220   10.3736669330
C        6.3000673136   30.5804088475   11.4290414973
C        8.9164654974   30.7380994122   11.7278324771
C        6.1803170575   26.5852508293   11.9136815951
C        4.7201806443   28.5392176597   12.9552065561
C        5.8712159056   26.7503395989   14.5450109964
C        9.2167647325   26.3095066514   11.5863589179
C       10.5303591868   28.1518470197   12.9726188596
C        9.1408358131   26.2978415109   14.2155173911
C        8.1196485138   31.3047942980   14.7511173154
C        5.4827254960   31.0495303159   14.2997952006
C        6.7264013524   29.6102980178   16.1032576274
29   
Iteration 8 Energy -1909.23740062
Fe       7.6317637583   29.5367864624   11.9347301652
Fe       6.2965157348   27.8098301270   13.1946014851
Fe       8.8961255873   27.4530958975   12.9153638408
Fe       6.9760926349   30.0388523791   14.4111807556
N        7.9136602268   28.7358650651   13.6491457236
O        7.8459471619   28.2897486521    9.2597575576
O        5.4676475871   31.3306601745   11.0075192862
O        9.7523335933   31.5584779176   11.4789880210
O        5.9757354379   25.7559662229   11.0874692065
O        3.5960581290   28.9491887662   12.7914075898
O        5.4789169252   26.0169592893   15.4073380796
O        9.4387664967   25.5022077552   10.7209534841
O       11.6266450260   28.5721549038   13.0196259759
O        9.3104795288   25.5007502214   15.0914088511
O        8.9650808198   32.1331749361   15.0276819858
O        4.5472010116   31.7690573330   14.2935835928
O        6.6274630210   29.3773219618   17.2700533299
C        7.7765832627   28.7268977133   10.3727621621
C        6.3091028786   30.5929407540   11.4339767525
C        8.9255910321   30.7265236991   11.7182611195
C        6.1615212630   26.5974043385   11.9199078836
C        4.7148252244   28.5573891602   12.9650855442
C        5.8594637561   26.7627291148   14.5510184549
C        9.1870839717   26.2932073091   11.5783456218
C       10.5185887868   28.1303914187   12.9583358026
C        9.1210489695   26.2820974621   14.2083966383
C        8.1548527188   31.3002525947   14.7473297193
C        5.5166711461   31.0733190116   14.3147429306
C        6.7556921049   29.6088574497   16.1044496065
29   
Iteration 9 Energy -1909.23813289
Fe       7.6302381871   29.5242616244   11.9171919079
Fe       6.2396353770   27.8983547279   13.2401286762
Fe       8.7833631811   27.3520314890   12.8667552950
Fe       7.1433883927   30.0720273166   14.4236018332
N        7.9317433021   28.7004853130   13.6306234940
O        7.6387679918   28.2076328717    9.2654336924
O        5.5665956269   31.4855294328   11.1079733355
O        9.8525859153   31.4208690208   11.4072566529
O        5.7663245915   25.8718949497   11.1355163206
O        3.5891820651   29.1731325215   12.9041030488
O        5.3914898499   26.1357988043   15.4670807657
O        9.1165280546   25.3854643300   10.6425053084
O       11.5391382625   28.4005026381   12.8680199190
O        9.1171836238   25.3816544173   15.0400806075
O        9.2876219112   32.0366851921   14.9559792371
O        4.8733858125   32.0105733989   14.4398520712
O        6.8578087751   29.2725140728   17.2526908698
C        7.6553858501   28.6831013847   10.3658705678
C        6.3725496143   30.6790573154   11.4789589243
C        8.9837606532   30.6336352441   11.6455572241
C        6.0216287502   26.6932058217   11.9713632455
C        4.6860259085   28.7110857144   13.0459150782
C        5.7792402072   26.8669530116   14.6022848542
C        8.9630596270   26.1771913145   11.5206299300
C       10.4295929160   27.9664585884   12.8456220604
C        8.9765094299   26.1668672495   14.1522621553
C        8.4111925666   31.2562893744   14.7190370858
C        5.7803037601   31.2331716054   14.4165094426
C        6.9632275301   29.5856788579   16.1046164866
29   
Iteration 10 Energy -1909.23817491
Fe       7.6202007247   29.5101308240   11.9069789130
Fe       6.2719712028   27.8614811907   13.2374023736
Fe       8.8382919243   27.4062310541   12.9263552809
Fe       7.0558839162   30.0931389213   14.3965932901
N        7.9194646141   28.7368246273   13.6533001234
O        7.7638420529   28.1507890522    9.2795807646
O        5.4869616606   31.3626762965   11.0240340754
O        9.8356564629   31.4231475378   11.4268769181
O        5.8607858170   25.7961582045   11.1567427218
O        3.5843761907   29.0384919014   12.8410947532
O        5.5316247654   26.1482943501   15.5419503953
O        9.2213377367   25.4053891849   10.7397848342
O       11.5736851641   28.5145350730   12.8958089250
O        9.1772997197   25.4684994064   15.1301762201
O        9.1218660278   32.1509413569   14.8823261314
O        4.7579026369   31.9982184298   14.3076418039
O        6.7134933994   29.2632706737   17.2106337652
C        7.7183364595   28.6461137212   10.3717121046
C        6.3251718195   30.6064660675   11.4307590741
C        8.9607566047   30.6348232418   11.6466324860
C        6.0952329576   26.6335229475   11.9843163174
C        4.6921645286   28.6096363249   13.0085293353
C        5.8654248419   26.8530333367   14.6318238931
C        9.0555146390   26.2116949861   11.6047420113
C       10.4711595853   28.0560068727   12.8891834074
C        9.0420593426   26.2419482483   14.2284636756
C        8.2766788023   31.3284793017   14.6758410257
C        5.6712845062   31.2266282466   14.3325257122
C        6.8390307378   29.6055366170   16.0716099667
29   
Iteration 11 Energy -1909.23860854
Fe       7.6227653865   29.5180180575   11.9140716719
Fe       6.2568344034   27.8753440641   13.2373755776
Fe       8.8202571306   27.3836300352   12.8939283897
Fe       7.0903764715   30.0800896055   14.4126198643
N        7.9256858466   28.7195789940   13.6416087405
O        7.7182595637   28.2056519092    9.2614693387
O        5.5127229962   31.4126465805   11.0668062651
O        9.8336143549   31.4293499753   11.4105937225
O        5.8098141477   25.8230537157   11.1514223635
O        3.5837265222   29.0948577260   12.8758223201
O        5.4669329496   26.1369869875   15.5055396584
O        9.1903828560   25.3974550078   10.6923186716
O       11.5717885449   28.4528914053   12.8786605072
O        9.1753172854   25.4243736846   15.0763643538
O        9.1828730774   32.1016496019   14.9337453734
O        4.8031079271   31.9994008165   14.3703470520
O        6.7751764123   29.2718417344   17.2367308227
C        7.6924478488   28.6758924882   10.3644719049
C        6.3374598503   30.6362306683   11.4602921343
C        8.9661327363   30.6386291363   11.6501283345
C        6.0573648513   26.6570983305   11.9775432394
C        4.6891180626   28.6557558057   13.0275289141
C        5.8285047370   26.8564451748   14.6177993722
C        9.0213459854   26.2001576024   11.5599473149
C       10.4598665557   28.0161526212   12.8647738943
C        9.0247389497   26.2077615724   14.1860500703
C        8.3311184039   31.2934367749   14.7035636496
C        5.7121063162   31.2234810753   14.3712860200
C        6.8876179138   29.5942468278   16.0906106224
29   
Iteration 12 Energy -1909.23872621
Fe       7.6197198098   29.5166566642   11.9130259036
Fe       6.2467313268   27.8899339881   13.2462500809
Fe       8.8025457414   27.3667952750   12.8787490341
Fe       7.1204002638   30.0820478155   14.4184406765
N        7.9298842369   28.7117947977   13.6362945148
O        7.6846487339   28.2178862467    9.2529799508
O        5.5229696077   31.4375397645   11.0933803612
O        9.8410840675   31.4086770596   11.3862510347
O        5.7639966169   25.8408807293   11.1651826241
O        3.5820001443   29.1345226524   12.9094879378
O        5.4524519872   26.1557019098   15.5159693158
O        9.1340121800   25.3782160137   10.6731451065
O       11.5640484460   28.4095725059   12.8398315277
O        9.1611505890   25.3976071186   15.0521315837
O        9.2328852473   32.0832278834   14.9381107855
O        4.8688158708   32.0435901808   14.4019248243
O        6.8161569664   29.2506327918   17.2365847105
C        7.6688707923   28.6803142302   10.3594050409
C        6.3414730999   30.6500347249   11.4774212012
C        8.9708597415   30.6242725025   11.6374804016
C        6.0273956504   26.6732950972   11.9879076378
C        4.6850377714   28.6857795100   13.0486414795
C        5.8176405584   26.8743854370   14.6288289649
C        8.9788841518   26.1830903833   11.5416378587
C       10.4467821529   27.9848313933   12.8353806483
C        9.0073536158   26.1861929641   14.1667083472
C        8.3763064636   31.2808405920   14.7067179309
C        5.7616162399   31.2493069466   14.3925388151
C        6.9217358443   29.5844809169   16.0930114390
29   
Iteration 13 Energy -1909.23882050
Fe       7.6134897654   29.5138726011   11.9115729968
Fe       6.2421832870   27.8972275151   13.2550757873
Fe       8.7950777999   27.3604701473   12.8681710243
Fe       7.1371228200   30.0847872812   14.4225826029
N        7.9329520011   28.7096549111   13.6330906661
O        7.6699999852   28.2335694196    9.2428131437
O        5.5152262193   31.4416210746   11.1133462585
O        9.8387918401   31.3923750028   11.3573135517
O        5.7289550839   25.8462347505   11.1834253031
O        3.5788120161   29.1510007548   12.9435383691
O        5.4620230593   26.1742723432   15.5382955422
O        9.0907999573   25.3647123195   10.6642761374
O       11.5653134224   28.3794811434   12.7961224393
O        9.1721665935   25.3822373063   15.0308267308
O        9.2548720103   32.0798934447   14.9434665332
O        4.9191606443   32.0845775009   14.4175417518
O        6.8349682998   29.2270228100   17.2326633469
C        7.6532428501   28.6855799673   10.3534435903
C        6.3335121192   30.6517106404   11.4924397894
C        8.9681329086   30.6130010166   11.6240031676
C        6.0060002873   26.6794857362   12.0005879766
C        4.6822350750   28.6995568516   13.0691224600
C        5.8228527036   26.8886136806   14.6455110807
C        8.9478893650   26.1748613446   11.5305022187
C       10.4421305797   27.9677477370   12.8055014624
C        9.0078848568   26.1768671457   14.1522352111
C        8.4009302721   31.2758287577   14.7100177836
C        5.7949339528   31.2717689822   14.4035302768
C        6.9357979365   29.5740761111   16.0924025183
29   
Iteration 14 Energy -1909.23885990
Fe       7.6096485531   29.5124279963   11.9106067426
Fe       6.2435477544   27.8963005096   13.2583772542
Fe       8.7968212737   27.3637148931   12.8656164304
Fe       7.1385059009   30.0860266410   14.4236558512
N        7.9341399278   28.7119145471   13.6325681839
O        7.6690002379   28.2367719525    9.2398893043
O        5.5034941723   31.4343064760   11.1190040265
O        9.8326125234   31.3896466847   11.3436497646
O        5.7203347725   25.8439368690   11.1907865641
O        3.5770676247   29.1464259171   12.9592067807
O        5.4790426883   26.1812414653   15.5528879926
O        9.0748985242   25.3633659662   10.6639170131
O       11.5683338841   28.3776939826   12.7742507148
O        9.1904373327   25.3830402268   15.0231278634
O        9.2539926231   32.0825610970   14.9481563806
O        4.9306975372   32.0971567075   14.4176005385
O        6.8322229575   29.2157961959   17.2292762190
C        7.6493689712   28.6868345585   10.3512610168
C        6.3251546349   30.6473380460   11.4969543683
C        8.9631116267   30.6112731471   11.6170036489
C        6.0014052101   26.6775158169   12.0061752860
C        4.6818122539   28.6964635521   13.0781102861
C        5.8332509878   26.8916747402   14.6544286811
C        8.9391334726   26.1763321968   11.5287024491
C       10.4440005100   27.9689500838   12.7916456047
C        9.0184493279   26.1798986753   14.1480066374
C        8.4025546457   31.2762245938   14.7134214395
C        5.8010022886   31.2784477360   14.4042311455
C        6.9334154724   29.5688268455   16.0909012582
29   
Iteration 15 Energy -1909.23890575
Fe       7.6045733770   29.5122948935   11.9096996350
Fe       6.2470524226   27.8927655561   13.2612466427
Fe       8.8009843923   27.3707259489   12.8607747190
Fe       7.1393290591   30.0855673963   14.4259314287
N        7.9363751481   28.7155294419   13.6310278190
O        7.6635954568   28.2400657167    9.2375233875
O        5.4861487759   31.4248334503   11.1276740335
O        9.8200381087   31.3935170380   11.3271643966
O        5.7104766527   25.8413651050   11.1964468414
O        3.5753983978   29.1365715891   12.9826540315
O        5.5056387712   26.1861659659   15.5696820478
O        9.0518666658   25.3655661668   10.6606092539
O       11.5715891619   28.3836448239   12.7430204334
O        9.2234352843   25.3878079334   15.0106197851
O        9.2539689331   32.0798956279   14.9623092302
O        4.9392507444   32.1054606903   14.4196136400
O        6.8259435850   29.2003503814   17.2259149882
C        7.6432045422   28.6898448685   10.3490163603
C        6.3133881983   30.6422892251   11.5028727587
C        8.9539419396   30.6142666974   11.6080252391
C        5.9961622139   26.6740091059   12.0111400682
C        4.6821807967   28.6889782537   13.0911530941
C        5.8496581796   26.8916756638   14.6637545078
C        8.9283214521   26.1812547671   11.5244900777
C       10.4474772639   27.9755265510   12.7709373571
C        9.0387773650   26.1868865931   14.1402908607
C        8.4036187069   31.2734236900   14.7233036655
C        5.8056559680   31.2825254780   14.4067938933
C        6.9294059560   29.5592988666   16.0897289840
29   
Iteration 16 Energy -1909.23895798
Fe       7.5989105725   29.5148779050   11.9091971216
Fe       6.2511829961   27.8886229950   13.2628737426
Fe       8.8053184263   27.3784591867   12.8516843522
Fe       7.1428117892   30.0821974691   14.4303487210
N        7.9400732753   28.7184737899   13.6274060462
O        7.6477978719   28.2453195935    9.2356621438
O        5.4679816537   31.4197065124   11.1417006717
O        9.8024371932   31.4052256480   11.3108558306
O        5.6946236707   25.8422174630   11.1987132132
O        3.5748962065   29.1286695773   13.0134024660
O        5.5359370168   26.1873030971   15.5835295932
O        9.0198648082   25.3694085492   10.6514858715
O       11.5728313437   28.3946786229   12.7026558184
O        9.2664096077   25.3941820333   14.9921573285
O        9.2625106992   32.0650769187   14.9887123860
O        4.9489910008   32.1093566865   14.4292158510
O        6.8214949679   29.1785251123   17.2234440029
C        7.6318249895   28.6956833056   10.3470240380
C        6.3010521400   30.6406545733   11.5114993431
C        8.9418768322   30.6227070575   11.5986465507
C        5.9870658921   26.6722033761   12.0137083943
C        4.6835599167   28.6824884066   13.1081174107
C        5.8682209490   26.8887022485   14.6704694512
C        8.9134245420   26.1870665305   11.5155254697
C       10.4501982328   27.9846803923   12.7424961620
C        9.0651523580   26.1947413686   14.1270900764
C        8.4096852523   31.2634781567   14.7411577842
C        5.8129378571   31.2837804981   14.4149401397
C        6.9283851379   29.5436191700   16.0896987572
29   
Iteration 17 Energy -1909.23902944
Fe       7.5913856489   29.5222798086   11.9093904356
Fe       6.2569816355   27.8827840799   13.2619489208
Fe       8.8117390160   27.3888576192   12.8357250868
Fe       7.1484540057   30.0737061388   14.4386110083
N        7.9460023913   28.7209655715   13.6205087564
O        7.6175111099   28.2556307179    9.2342249668
O        5.4452803661   31.4191413514   11.1641670200
O        9.7748748766   31.4310566362   11.2953746949
O        5.6687582308   25.8473592085   11.1959795296
O        3.5763578377   29.1215390943   13.0561911803
O        5.5775443962   26.1810110194   15.5931295875
O        8.9761692738   25.3757981550   10.6348992493
O       11.5719532294   28.4169875952   12.6435258223
O        9.3315846366   25.4061346802   14.9640531511
O        9.2800673529   32.0314442074   15.0378711050
O        4.9596726573   32.1068778691   14.4505133035
O        6.8161375164   29.1408292296   17.2207981982
C        7.6123033028   28.7067700283   10.3454136376
C        6.2853232875   30.6433163769   11.5250527351
C        8.9235790392   30.6410043349   11.5893344063
C        5.9719559968   26.6724582160   12.0119861495
C        4.6869573402   28.6762306203   13.1315648399
C        5.8935803316   26.8799230744   14.6728224457
C        8.8939273046   26.1951714097   11.4997477315
C       10.4525919760   28.0012393055   12.6993330710
C        9.1052248656   26.2064979669   14.1051273256
C        8.4207269366   31.2419121228   14.7735674698
C        5.8224554157   31.2801350607   14.4318694152
C        6.9283568678   29.5150430262   16.0906871400
29   
Iteration 18 Energy -1909.23910718
Fe       7.5841130083   29.5340242374   11.9106883775
Fe       6.2627176084   27.8768080566   13.2568641220
Fe       8.8191120545   27.3993289817   12.8174222305
Fe       7.1528941633   30.0610430400   14.4491543382
N        7.9520596182   28.7219276039   13.6122929068
O        7.5815337025   28.2686168336    9.2347733697
O        5.4253397900   31.4251804028   11.1881195230
O        9.7455737306   31.4665204172   11.2915559415
O        5.6404933849   25.8566439073   11.1859325000
O        3.5799977132   29.1177463457   13.0958531320
O        5.6199229568   26.1632367882   15.5898642193
O        8.9390776342   25.3829640715   10.6164066470
O       11.5674448718   28.4504322077   12.5814274224
O        9.4023893755   25.4241142969   14.9363154425
O        9.2993679496   31.9854114121   15.0994081621
O        4.9665057733   32.0970514320   14.4795516939
O        6.8086219622   29.0906376864   17.2170911088
C        7.5901911011   28.7205222509   10.3456617254
C        6.2709775496   30.6511369374   11.5395711338