124  
Iteration 0 Energy -2503.57658821
C      102.0140000000   14.9730000000   80.2930000000
C      102.1170000000   13.4520000000   79.9330000000
C      102.5640000000   12.7660000000   81.2010000000
C      104.1030000000   12.6320000000   81.0650000000
C      104.7330000000   11.9110000000   82.2700000000
C      105.5030000000   12.9200000000   83.0790000000
C      106.9010000000   13.1690000000   82.4680000000
C      107.6710000000   14.2160000000   83.3380000000
C      107.7520000000   15.5890000000   82.6130000000
N      106.4330000000   16.3900000000   82.8150000000
C      106.1080000000   17.2820000000   81.7160000000
C      104.5870000000   17.2780000000   81.4940000000
C      104.0960000000   17.8730000000   80.1710000000
C      102.6990000000   17.3270000000   79.8760000000
C      102.0630000000   18.1380000000   78.7640000000
C      100.5327328200   17.9744755900   78.8200546800
C      100.7425980300   12.9145988300   79.4927509600
C      104.4236978200   11.8382172300   79.7848977300
C      105.6310000000   12.4070000000   84.5190000000
C      109.0972434600   13.7003542900   83.6054679500
C      106.4610000000   17.0670000000   84.1200000000
C      106.5746065800   18.7095347000   82.0566214600
C      105.0190000000   17.5140000000   78.9960000000
O      101.3550000000   15.3270000000   81.2530000000
O      104.8120000000   14.1600000000   83.1090000000
O      103.9812152200   18.0113188700   82.5617866100
O      104.0240000000   19.3080000000   80.3000000000
O      102.7750000000   15.9580000000   79.4360000000
C      105.1700000000    9.5630000000   82.0590000000
C      106.0420000000    8.5490000000   81.3490000000
C      105.4360000000    7.1980000000   81.4790000000
C      105.2200000000    6.8580000000   82.8980000000
C      104.5460000000    7.9680000000   83.7140000000
C      104.6487271400    7.6134824800   85.2091135300
C      107.5830000000    6.0730000000   81.4850000000
C      105.6760000000    4.8730000000   80.7370000000
O      105.6110000000   10.8760000000   81.8340000000
O      106.1447214500    8.8943377400   79.9651321800
N      106.3200000000    6.1930000000   80.8060000000
O      105.1490000000    9.2910000000   83.5010000000
C      100.7610000000   11.6080000000   82.2990000000
C       99.7450000000   10.5630000000   81.9130000000
C      100.0850000000    9.2030000000   82.4070000000
C      100.3630000000    9.2280000000   83.8630000000
C      101.4650000000   10.2040000000   84.1710000000
C      101.7149812000   10.2040359700   85.6905754000
C       98.8730000000    8.2400000000   82.0950000000
C      101.1300000000    8.0730000000   80.5340000000
O      101.9050000000   11.4980000000   81.4630000000
O      101.2900000000    8.7370000000   81.7650000000
O      100.8680000000    7.9370000000   84.2710000000
O      101.1550000000   11.5810000000   83.7420000000
H      102.0950010700   17.3887765700   80.7570612600
H      105.9317298600   17.1016172000   79.3725164300
H      104.5347261300   16.7949559700   78.3688202000
H      105.2332280000   18.3954554800   78.4285120300
H      104.9119973200   19.6713099100   80.3326599100
H      102.3160730700   19.1704642000   78.8859495700
H      102.4243220100   17.7914981900   77.8183346800
H      100.2763877400   17.2789442600   79.5916914900
H      100.0802528400   18.9213854800   79.0286776200
H      100.1783202900   17.6094794200   77.8787420000
H      104.2464378700   16.2651280200   81.5488433400
H      104.6655253400   18.3924802500   83.1167962100
H      106.6000427200   16.9476485500   80.8266164600
H      107.5152573800   18.8997418900   81.5834435700
H      105.8500895800   19.4147029300   81.7063174900
H      106.6826734800   18.8060178000   83.1167688800
H      107.3412846400   17.6712919900   84.1894992500
H      105.5942987700   17.6866138100   84.2190339100
H      106.4677917100   16.3357354200   84.9010928100
H      108.5708494200   16.1508768600   83.0113466100
H      107.9102583900   15.4272792800   81.5671985400
H      107.1615712600   14.3405954900   84.2706619500
H      109.7571045800   14.5314230800   83.7426100600
H      109.0980232400   13.0949387100   84.4877215200
H      109.4275639100   13.1164277600   82.7719103900
H      107.4496028000   12.2505924500   82.4464932600
H      106.7931938400   13.5435083900   81.4714954600
H      106.5313655900   12.7873393300   84.9544122200
H      104.7901563900   12.7384107600   85.0917555700
H      105.6607609900   11.3374204900   84.5152657100
H      105.4469450600   14.8798204600   83.1264150100
H      103.9584643200   11.4877879400   82.8748851400
H      104.5303597800   13.6095636100   80.9835566900
H      105.3524699400   11.3215789000   79.9088621500
H      103.6434740300   11.1298217800   79.5996229800
H      104.4979719900   12.5117266200   78.9567863500
H      102.3585983900   13.4201958300   82.0224243700
H      102.8390757900   13.3033275200   79.1574981900
H      100.8183962300   11.8673335900   79.2868622800
H      100.0301720800   13.0736395800   80.2750906000
H      100.4242841600   13.4294341900   78.6104126900
H      100.3192830600   12.5640247100   82.1097834600
H       99.6733120700   10.5321787900   80.8458491700
H       98.7937147200   10.8453157500   82.3133175300
H       99.1592970400    7.2291373700   82.2977085300
H       98.0392122200    8.5049226000   82.7110470400
H       98.5992546300    8.3334232200   81.0648371100
H      101.9574539400    7.4136965400   80.3741909700
H      100.2214730400    7.5079738300   80.5489731200
H      101.0894634900    8.7926501000   79.7432026000
H      101.8278585400    7.9527136800   84.2660339400
H       99.4779927900    9.4752622700   84.4112003400
H      102.3571192700    9.8824281800   83.6754046300
H      102.6349416300   10.7084437800   85.9006839000
H      100.9108129400   10.7084505000   86.1843156100
H      101.7728772800    9.1952386300   86.0425355800
H      104.1722761500    9.4725674000   81.6831422300
H      107.0171567200    8.5464812100   81.7894123400
H      107.0704665700    8.9558744200   79.7185369600
H      103.5122186600    8.0143330500   83.4418798300
H      105.5442243600    8.0356155900   85.6150548600
H      103.8008134800    8.0087239000   85.7284656700
H      104.6725189200    6.5497873400   85.3226327000
H      104.6087088100    5.9812167000   82.9477405500
H      106.1681132300    6.6379236700   83.3424634000
H      104.4878485200    7.2020135100   80.9831243400
H      108.3146888800    6.6734138900   80.9859664000
H      107.4774154600    6.4065097800   82.4961988600
H      107.8960521700    5.0498453000   81.4777336100
H      106.3051752200    4.1443386800   81.2040023800
H      104.7343889100    4.9086036900   81.2439526000
H      105.5197820600    4.6054628800   79.7128321200
124  
Iteration 1 Energy -2503.63646914
C      101.9593220955   15.0164724669   80.3467871186
C      102.0605311095   13.5152206876   79.9509535393
C      102.5421086076   12.7933679440   81.2065765853
C      104.0765865451   12.6530094514   81.0623656125
C      104.6858589127   11.9121666995   82.2772188642
C      105.4490806450   12.9181040207   83.1155365009
C      106.8604240156   13.1675719260   82.5243205819
C      107.6513096404   14.2090797077   83.3835657038
C      107.7476197832   15.5760953600   82.6538695575
N      106.4530613033   16.3885683374   82.8556591776
C      106.1429293648   17.2760330381   81.7166241099
C      104.6069404950   17.2954245813   81.4903986647
C      104.1057979070   17.8542928755   80.1343350917
C      102.6841103591   17.3284276264   79.8741036424
C      102.0383969573   18.1107780413   78.7387444723
C      100.4987836663   17.9855970850   78.8138474751
C      100.6782801074   12.9993269532   79.5048430543
C      104.4051016232   11.8835948519   79.7602878579
C      105.5500226426   12.3933140207   84.5601452653
C      109.0742076057   13.6735126673   83.6500912356
C      106.5158489160   17.0342388192   84.1790137496
C      106.6444913897   18.7214063734   81.9784172630
C      105.0080533217   17.4390186189   78.9504739306
O      101.3350707711   15.4253722240   81.2982804942
O      104.7475205259   14.1573148769   83.1370302792
O      103.9982707111   18.0825046434   82.5196454654
O      104.0512733145   19.2914635794   80.2103160204
O      102.7166550498   15.9458913420   79.4757030899
C      105.1194559771    9.5655747235   82.0627094962
C      106.0184045829    8.5620899435   81.3669270324
C      105.4101908590    7.1979271829   81.4676004702
C      105.1466116430    6.8549206802   82.8985121749
C      104.4450263121    7.9667946614   83.6901789461
C      104.4977299507    7.6277113611   85.1910132388
C      107.5908040317    6.0770802382   81.4834398879
C      105.6574124336    4.8863421744   80.6934988332
O      105.5720583666   10.8733111457   81.8599102558
O      106.1582531461    8.9256383529   79.9916004561
N      106.3155186278    6.2049666285   80.7957118087
O      105.0515996940    9.2819069174   83.4934170957
C      100.7821148043   11.5950484525   82.3130528050
C       99.7799034104   10.5286948824   81.9327642457
C      100.1621570806    9.1594767385   82.4092714882
C      100.4692072818    9.1856255766   83.8713094733
C      101.5568232872   10.2002947863   84.1577350679
C      101.8445066145   10.2317144656   85.6687689101
C       98.9681972976    8.1761337536   82.1191967051
C      101.2675971750    8.0673979176   80.5024385923
O      101.9082290571   11.5178101297   81.4543376242
O      101.3732630807    8.7287098243   81.7459614509
O      100.9979487846    7.9036517764   84.2686782753
O      101.2019728068   11.5582063944   83.7328307463
H      102.0930617725   17.4354679499   80.7671062949
H      105.9289505437   17.0210245894   79.3114444481
H      104.5032638408   16.7038581090   78.3487366316
H      105.2254033036   18.3038346839   78.3471754541
H      104.9474097392   19.6401730471   80.2158887555
H      102.3180608391   19.1462212172   78.8192365062
H      102.3823770465   17.7181026497   77.7967492407
H      100.2256543706   17.3223767580   79.6167639307
H      100.0636058972   18.9543843385   78.9918689611
H      100.1182799106   17.5923444074   77.8861802962
H      104.2492391100   16.2840158808   81.5888719081
H      104.6777013640   18.4852281804   83.0634467763
H      106.6317141332   16.8933761202   80.8405577655
H      107.5922741971   18.8683434148   81.4882338937
H      105.9343128814   19.4295095755   81.5926552296
H      106.7669639722   18.8932407043   83.0282618432
H      107.4189531356   17.6155123976   84.2684915357
H      105.6654025293   17.6752696989   84.3144439255
H      106.5086862895   16.2750617666   84.9423182789
H      108.5817775830   16.1327542489   83.0503315682
H      107.8992537628   15.4122868740   81.6009116633
H      107.1456893739   14.3484444629   84.3222455994
H      109.7562329415   14.4967843548   83.7830001210
H      109.0719741321   13.0679352230   84.5408525203
H      109.3992407672   13.0756950905   82.8154826912
H      107.4025111364   12.2385526575   82.5067889914
H      106.7584805302   13.5452648225   81.5206320389
H      106.4434731172   12.7676715026   85.0288321256
H      104.6909928928   12.7238409616   85.1188331772
H      105.5800154427   11.3170486942   84.5534420075
H      105.3724964462   14.8951583867   83.1670840212
H      103.8930391894   11.4848731537   82.8665785284
H      104.5088177728   13.6357591674   80.9995617089
H      105.3345050729   11.3575677398   79.8713117191
H      103.6214875920   11.1750503563   79.5496783646
H      104.4876268503   12.5754209572   78.9391807872
H      102.3458715632   13.4335813377   82.0489449209
H      102.7733661625   13.3875283793   79.1581818144
H      100.7484873567   11.9528888710   79.2649890151
H       99.9653253856   13.1373031171   80.2983958414
H      100.3508926091   13.5443656326   78.6352071222
H      100.3187510275   12.5527224759   82.1532464926
H       99.6860977317   10.5120707636   80.8603266254
H       98.8243090909   10.7867103053   82.3586454162
H       99.2796947675    7.1641290002   82.3133077294
H       98.1383805412    8.4237902939   82.7592216307
H       98.6630948068    8.2658977986   81.0909510155
H      102.1375053899    7.4481752317   80.3625677490
H      100.3874844437    7.4509259408   80.4799669722
H      101.2146046658    8.7934292801   79.7063667169
H      101.9590420757    7.9390492111   84.2442216796
H       99.5833343379    9.4121471555   84.4403032984
H      102.4520669954    9.8986813679   83.6400253798
H      102.7592079690   10.7701339837   85.8514828398
H      101.0329272655   10.7229489039   86.1788579132
H      101.9418328428    9.2259547397   86.0382620966
H      104.1246369300    9.4775260858   81.6557482049
H      106.9864793987    8.5599539151   81.8402924849
H      107.0927644796    8.9941988310   79.7749188756
H      103.4133757800    8.0127280061   83.3804211433
H      105.3854252728    8.0566593868   85.6240153142
H      103.6303245156    8.0290299388   85.6872667139
H      104.5178866402    6.5587538655   85.3189952092
H      104.5302124242    5.9721778989   82.9347280832
H      106.0823262502    6.6368823499   83.3817565835
H      104.4700236728    7.2001778727   80.9407358862
H      108.3298435141    6.6898361180   80.9926146333
H      107.5030180713    6.3919081870   82.5087220568
H      107.9141967115    5.0513528293   81.4604802408
H      106.2706658478    4.1323522103   81.1560665574
H      104.7007277252    4.9131410112   81.1881583694
H      105.5107830530    4.6354526541   79.6556963662
124  
Iteration 2 Energy -2503.66293622
C      101.9442150801   15.0183774883   80.3485762675
C      102.0320593070   13.5268684973   79.9526211427
C      102.5120754558   12.7922790815   81.2155813333
C      104.0455277603   12.6347188164   81.0795113740
C      104.6460401259   11.8877253355   82.3030050432
C      105.4099885560   12.8908174206   83.1595207630
C      106.8268282913   13.1389470540   82.5773254654
C      107.6296055311   14.1757094141   83.4299146841
C      107.7317417244   15.5361744121   82.6946056433
N      106.4533448024   16.3540662483   82.8862148667
C      106.1602686759   17.2330147126   81.7260965221
C      104.6208327512   17.2660966876   81.4835239744
C      104.1303985953   17.8055188878   80.1032521266
C      102.6961337392   17.2958546348   79.8487398353
C      102.0549350613   18.0593720695   78.6922330817
C      100.5093004785   17.9587336160   78.7622246170
C      100.6439020912   13.0353948046   79.4957606904
C      104.3820830072   11.8663785918   79.7741706760
C      105.5002149478   12.3573910550   84.6054555008
C      109.0512227287   13.6316504146   83.6991394798
C      106.5166168160   17.0031471970   84.2075255995
C      106.6852316713   18.6805444033   81.9582817329
C      105.0351108414   17.3551840722   78.9272806979
O      101.3256895106   15.4417537085   81.2909962197
O      104.7022500288   14.1297415382   83.1796509185
O      104.0040245850   18.0787397030   82.4883553790
O      104.0856148641   19.2419700372   80.1450734835
O      102.7058185996   15.9054439972   79.4795402679
C      105.1365319889    9.5276306020   82.0587378689
C      106.0901068884    8.5902031585   81.3389354591
C      105.5501173186    7.1871353226   81.3976127398
C      105.2950182945    6.7985798821   82.8317111021
C      104.5357906409    7.8593301680   83.6404737233
C      104.5982154795    7.5006771625   85.1358925591
C      107.7977630472    6.1792768928   81.3734613130
C      105.9002394402    4.9169788165   80.5517441569
O      105.5419285527   10.8513022226   81.8880144744
O      106.2155939655    9.0028073912   79.9770106765
N      106.5032010621    6.2620991580   80.6964150051
O      105.0756479325    9.1999170803   83.4737537497
C      100.7347547466   11.6583250283   82.3091916435
C       99.7030807373   10.6094377546   81.9462787274
C      100.0370146587    9.2337305555   82.4673298113
C      100.3271662357    9.3024147112   83.9409698457
C      101.4439241536   10.3039520631   84.2035030848
C      101.7175930875   10.4047389437   85.7121582959
C       98.8204155047    8.2830780986   82.1950571507
C      101.1534742251    8.0501507743   80.6096000100
O      101.8625476950   11.5303752437   81.4588748916
O      101.2437189555    8.7458631547   81.8371537226
O      100.7972940792    8.0200808625   84.3950040588
O      101.1325638315   11.6441530921   83.7211651263
H      102.1044500086   17.4322271974   80.7425333062
H      105.9571240421   16.9318518717   79.2907134810
H      104.5256352647   16.6104334060   78.3336358173
H      105.2630254527   18.2097213329   78.3048242735
H      104.9872147851   19.5800027143   80.1443631762
H      102.3509769639   19.0961045748   78.7486331773
H      102.3978316488   17.6370016930   77.7568797193
H      100.2162695757   17.3170259505   79.5820510514
H      100.0823690696   18.9408966105   78.9154153820
H      100.1207296711   17.5475438820   77.8397450278
H      104.2502069377   16.2556312670   81.6007178499
H      104.6787981176   18.4902914254   83.0326522432
H      106.6532044640   16.8242857700   80.8603459443
H      107.6430777337   18.8035501361   81.4700038953
H      105.9903509921   19.3977533706   81.5521046750
H      106.8072604292   18.8828753860   83.0073126382
H      107.4289168904   17.5802462582   84.3090393632
H      105.6675995940   17.6540435042   84.3404407020
H      106.4964226418   16.2418354778   84.9747808666
H      108.5747328609   16.0933648120   83.0887393717
H      107.8811140844   15.3662047398   81.6375377583
H      107.1250994410   14.3237915665   84.3726898951
H      109.7461268190   14.4514528116   83.8299954643
H      109.0478697623   13.0263794277   84.5963731386
H      109.3768566064   13.0243899482   82.8650763915
H      107.3633102382   12.2018344262   82.5602000514
H      106.7280771471   13.5193440973   81.5686350667
H      106.3915859520   12.7271455475   85.0926750827
H      104.6317143371   12.6876358708   85.1590633881
H      105.5299944175   11.2762739722   84.5964261208
H      105.3236100986   14.8778026908   83.2156083010
H      103.8447343084   11.4587767730   82.8877196476
H      104.4819905869   13.6202872804   81.0231067628
H      105.3107474781   11.3324350088   79.8866243605
H      103.5953220349   11.1570202084   79.5511839410
H      104.4753254769   12.5608385895   78.9496837645
H      102.3193829509   13.4354306414   82.0627049606
H      102.7461351997   13.3937339881   79.1575241448
H      100.7002355665   11.9851468460   79.2488746842
H       99.9226956941   13.1788762536   80.2869486024
H      100.3260898978   13.5917690029   78.6233024937
H      100.3034098330   12.6319958312   82.1271201996
H       99.6182866156   10.5712693897   80.8686486946
H       98.7469570939   10.9078103295   82.3583483448
H       99.0970037250    7.2639639516   82.4276172204
H       97.9881784543    8.5793329455   82.8193740034
H       98.5251350217    8.3469104356   81.1568681322
H      102.0179194247    7.4064617612   80.5169570346
H      100.2589541343    7.4466963742   80.5734139546
H      101.1421737326    8.7541175698   79.7841560302
H      101.7600484784    8.0218732927   84.3831805142
H       99.4365759224    9.5779577787   84.4902919581
H      102.3398030342    9.9550438429   83.7076676321
H      102.6477451804   10.9312482383   85.8803013352
H      100.9101773385   10.9439930233   86.1902959988
H      101.7854935122    9.4140623777   86.1367883038
H      104.1425907871    9.4034646448   81.6421147695
H      107.0591206185    8.6242789588   81.8218432360
H      107.1479149555    9.1257304924   79.7697271267
H      103.5004816246    7.8614014843   83.3213725378
H      105.4664607094    7.9679069212   85.5807275268
H      103.7094309188    7.8513716340   85.6418317422
H      104.6705925951    6.4274640129   85.2504984217
H      104.7193316984    5.8819828126   82.8500648384
H      106.2406605846    6.6165235752   83.3213823752
H      104.6089534713    7.1548906760   80.8624824267
H      108.5051706939    6.8457237993   80.8932408784
H      107.7172689321    6.4575498147   82.4156351022
H      108.1774991321    5.1697033622   81.3159297346
H      106.5456511783    4.1670444619   80.9879011122
H      104.9392870136    4.8794750603   81.0489226193
H      105.7592709361    4.6918594062   79.5014714908
124  
Iteration 3 Energy -2503.68986158
C      101.8947925794   15.0869669761   80.4011012021
C      101.9709343509   13.6360715189   79.9536825003
C      102.5223499471   12.8489194791   81.1849353110
C      104.0413940239   12.6784775653   81.0224972307
C      104.5976638590   11.9149052475   82.2671424747
C      105.3588344798   12.9074093764   83.1702182772
C      106.7901755437   13.1412706877   82.6231966928
C      107.6114044787   14.1665318922   83.4654232085
C      107.7180346278   15.5150253820   82.7214902329
N      106.4680328250   16.3314239226   82.9052083552
C      106.1795341312   17.2077124793   81.7304829134
C      104.6316453114   17.2619794229   81.4884462532
C      104.1210764748   17.7889924909   80.0861975276
C      102.6549609775   17.3166326155   79.8806166387
C      101.9728326091   18.0601555156   78.7227349734
C      100.4210158237   17.9960754711   78.8370195032
C      100.5686300485   13.1757219670   79.5062206401
C      104.3806537560   11.9420699575   79.6923919517
C      105.3950110239   12.3607378057   84.6196105941
C      109.0271179571   13.6027484955   83.7472830078
C      106.5355321287   16.9883862027   84.2181124474
C      106.7461996749   18.6519234782   81.9267525695
C      104.9963866468   17.2985277263   78.8917378341
O      101.3070559673   15.4789643488   81.3682229812
O      104.6509642194   14.1519516829   83.1672784475
O      104.0207566160   18.0964170908   82.4783792095
O      104.0867004774   19.2199292069   80.0903870658
O      102.6149523401   15.9198339234   79.5446603862
C      105.0192246855    9.5629971812   82.0498557666
C      105.9902168346    8.5891204765   81.3936922894
C      105.3969266012    7.1878226583   81.4366056853
C      105.0299627791    6.8443929974   82.8872306899
C      104.2597274796    7.9576415260   83.6136994532
C      104.2069014558    7.6680294530   85.1223867002
C      107.6265947629    6.1088712979   81.5227128390
C      105.6834595757    4.9064711390   80.6206361559
O      105.4876196776   10.8562902603   81.8977275488
O      106.2088137973    8.9858491570   80.0411392408
N      106.3461717799    6.2260536867   80.7950353836
O      104.8563275388    9.2543745646   83.4438804892
C      100.8460018513   11.6080768191   82.3254618555
C       99.8573058400   10.5048689879   81.9755598812
C      100.3133021473    9.1150867756   82.4211888397
C      100.6960286161    9.1667005440   83.8951967969
C      101.7581919603   10.2576154169   84.1114644158
C      102.1267109776   10.3921206014   85.5912908111
C       99.1588382262    8.1038592497   82.1937979324
C      101.4176880852    8.0842554662   80.4614058969
O      101.9246592427   11.5717629883   81.4092811535
O      101.5100896560    8.7349268867   81.7140546060
O      101.2520302934    7.9093750916   84.2925706031
O      101.3222497711   11.5582203299   83.6755469579
H      102.0958179580   17.4914577034   80.7988152876
H      105.9347708761   16.8596639494   79.2208735652
H      104.4643266252   16.5447210537   78.3130151626
H      105.2216424761   18.1463452178   78.2420505451
H      104.9973229145   19.5397553859   80.0554245708
H      102.2970410446   19.0987030753   78.7384966320
H      102.2818986857   17.5992442205   77.7815666557
H      100.1224149418   17.3810475860   79.6883930760
H      100.0071331627   18.9972859546   78.9747550543
H       99.9826037946   17.5651289954   77.9337072000
H      104.2432037409   16.2493830773   81.6297468652
H      104.7004580940   18.5175999526   83.0146694779
H      106.6676745588   16.7695439172   80.8678674719
H      107.7141019177   18.7455511580   81.4291783771
H      106.0713885246   19.3939115609   81.5097168747
H      106.8871761512   18.8902490187   82.9788136904
H      107.4585961272   17.5721821385   84.3369444526
H      105.6784409686   17.6468174113   84.3516771736
H      106.5065551027   16.2246085863   84.9952258624
H      108.5766302082   16.0791285598   83.1092926098
H      107.8630228326   15.3360911727   81.6555008468
H      107.1065091351   14.3342978378   84.4154115526
H      109.7507476652   14.4119939907   83.8793280442
H      109.0171806722   12.9965425670   84.6567178348
H      109.3587005021   12.9759297582   82.9163725477
H      107.3132605642   12.1867092061   82.6100165273
H      106.7042357671   13.5240532713   81.6024246641
H      106.2741791064   12.7129578024   85.1624752079
H      104.5000405072   12.7007073137   85.1441752978
H      105.4142448243   11.2690340150   84.6098715302
H      105.2746338191   14.9119185499   83.2182598061
H      103.7620522355   11.4944437331   82.8265970284
H      104.4898799576   13.6687771884   80.9886019559
H      105.3094289791   11.3896423382   79.7836709029
H      103.5864347024   11.2353211453   79.4363645504
H      104.4861364388   12.6590808775   78.8745038876
H      102.3572277553   13.4689001455   82.0674093923
H      102.6614188908   13.5394633297   79.1235540978
H      100.6128367626   12.1291947654   79.2052597986
H       99.8514059395   13.2832891746   80.3190387961
H      100.2273257099   13.7774355825   78.6598844110
H      100.3530724171   12.5751371449   82.2308653619
H       99.7040882729   10.5096868358   80.8944754633
H       98.9028431545   10.7269490284   82.4625289274
H       99.5152842192    7.0892523144   82.3786975099
H       98.3426805872    8.3269325606   82.8838771232
H       98.7828153558    8.1730924313   81.1711517854
H      102.3382482582    7.5145490861   80.3202292641
H      100.5702313100    7.3983978755   80.4165416793
H      101.3242770065    8.8188745147   79.6512874518
H      102.2129615765    7.9737674953   84.2169527975
H       99.8156214960    9.3703748410   84.5091351551
H      102.6517393491    9.9766672560   83.5471104540
H      103.0292254550   10.9976214417   85.6982952023
H      101.3072149840   10.8748058506   86.1296652819
H      102.3037380514    9.4069268343   86.0217749588
H      104.0332239745    9.4699368954   81.5736160415
H      106.9354691660    8.6019572879   81.9456377675
H      107.1585457772    9.0788310676   79.8958857805
H      103.2369111355    7.9897819868   83.2187181893
H      105.0718271864    8.1252340372   85.6070291853
H      103.2990732749    8.0775052988   85.5688368442
H      104.2260908992    6.5903475461   85.2973182089
H      104.4122483914    5.9422772322   82.9013825655
H      105.9404126616    6.6415786457   83.4542091808
H      104.4821948679    7.1768477816   80.8362332012
H      108.3817049334    6.7521693958   81.0569820720
H      107.5481929622    6.3958924596   82.5759594327
H      107.9853600475    5.0807314738   81.4834124306
H      106.2664863055    4.1089617651   81.0858051689
H      104.6871592420    4.9013019894   81.0707811892
H      105.5778115101    4.6811687136   79.5543706652
124  
Iteration 4 Energy -2503.70628115
C      101.9043143350   15.0718952532   80.3978159823
C      101.9660598653   13.6180392871   79.9677164392
C      102.4943499725   12.8271777603   81.2129600739
C      104.0162589852   12.6415798917   81.0602240043
C      104.5861844880   11.8797851537   82.3031226265
C      105.3516965444   12.8712432471   83.2098535942
C      106.7781167050   13.1145790178   82.6541250024
C      107.6070193475   14.1391314988   83.4894312648
C      107.7058744319   15.4882721121   82.7480757967
N      106.4636482526   16.3049540595   82.9296355308
C      106.1877741393   17.1727090425   81.7411931285
C      104.6434670602   17.2326803947   81.4837450905
C      104.1560584479   17.7374958178   80.0628199742
C      102.6865420290   17.2789177612   79.8507875519
C      102.0184400354   18.0028013565   78.6712925976
C      100.4649634344   17.9536352765   78.7708906901
C      100.5614509066   13.1809934052   79.5057649508
C      104.3531356176   11.9031347423   79.7309838098
C      105.4028924802   12.3144059289   84.6547298243
C      109.0260416565   13.5789882731   83.7609896433
C      106.5258702322   16.9618396814   84.2421243909
C      106.7651088289   18.6173174138   81.9091093653
C      105.0405678653   17.2160609232   78.8874861276
O      101.3061237840   15.4830881920   81.3558924226
O      104.6310706503   14.1084835773   83.2178512591
O      104.0198100567   18.0859321042   82.4486196036
O      104.1302099704   19.1670325591   80.0368109591
O      102.6359568741   15.8746985600   79.5446174281
C      105.0868779523    9.5203482781   82.0534088526
C      106.1041355881    8.6236227083   81.3533025756
C      105.6033096644    7.1832178707   81.3731775872
C      105.2900706164    6.7876032313   82.8272025652
C      104.4683561266    7.8349182269   83.5930091530
C      104.4733288826    7.5126094115   85.0961217291
C      107.8993921002    6.2479102803   81.3739135721
C      106.0064818128    4.9480996168   80.4906102763
O      105.4883625987   10.8352817943   81.9199392371
O      106.2668667766    9.0662651839   80.0077681701
N      106.5922557863    6.3000034289   80.6866522515
O      104.9767554125    9.1672412892   83.4386175081
C      100.7539010277   11.6840994920   82.3217212172
C       99.7091068619   10.6306756049   81.9752379490
C      100.0602400542    9.2257874530   82.4717639145
C      100.4026933308    9.3038754575   83.9586262482
C      101.5257649774   10.3377592804   84.1740144710
C      101.8576007568   10.5154020402   85.6565895679
C       98.8518749950    8.2871118472   82.2423661665
C      101.1619913289    8.0696096795   80.5793931464
O      101.8510992235   11.5707971165   81.4282582121
O      101.2501406270    8.7487588131   81.8166447069
O      100.8512303829    8.0279772637   84.4165484678
O      101.1822622631   11.6411089312   83.6794540840
H      102.1204980679   17.4781958466   80.7609842751
H      105.9743025874   16.7739750613   79.2297731955
H      104.5094289393   16.4549336909   78.3152761807