3    
Iteration 48 Energy -92.33971298
C       -0.6430495628   -0.8915390187    0.0113371982
N        0.0360193055    0.0479515241   -0.0004163113
H        0.6121037138    0.8449632408   -0.0103873320
3    
Iteration 47 Energy -92.33971298
C       -0.6430495626   -0.8915390163    0.0113371973
N        0.0360193066    0.0479515208   -0.0004163093
H        0.6121037126    0.8449632417   -0.0103873331
3    
Iteration 46 Energy -92.33970967
C       -0.6423314929   -0.8930047098    0.0113361020
N        0.0334257360    0.0497208459   -0.0003961099
H        0.6139792134    0.8446596101   -0.0104064372
3    
Iteration 45 Energy -92.33961120
C       -0.6359910522   -0.8982591109    0.0112910023
N        0.0195001016    0.0610100481   -0.0002958991
H        0.6215644071    0.8386248090   -0.0104615483
3    
Iteration 44 Energy -92.33938052
C       -0.6301396251   -0.9033571114    0.0112505278
N        0.0060293676    0.0711478562   -0.0001953551
H        0.6291837140    0.8335850014   -0.0105216178
3    
Iteration 43 Energy -92.33899811
C       -0.6230413633   -0.9076785817    0.0111928439
N       -0.0079434727    0.0825790164   -0.0000952825
H        0.6360582925    0.8264753115   -0.0105640065
3    
Iteration 42 Energy -92.33848513
C       -0.6161952572   -0.9120682743    0.0111382310
N       -0.0221718061    0.0931689720    0.0000114600
H        0.6434405198    0.8202750485   -0.0106161362
3    
Iteration 41 Energy -92.33783104
C       -0.6082160272   -0.9152477159    0.0110656530
N       -0.0360769722    0.1047712558    0.0001100042
H        0.6493664559    0.8118522062   -0.0106421023
3    
Iteration 40 Energy -92.33708184
C       -0.6013118614   -0.9191219548    0.0110080299
N       -0.0504849756    0.1144196796    0.0002230501
H        0.6568702935    0.8060780214   -0.0106975250
3    
Iteration 39 Energy -92.33620626
C       -0.5918768407   -0.9199344666    0.0109086284
N       -0.0626893585    0.1269497391    0.0002987250
H        0.6596396557    0.7943604737   -0.0106737986
3    
Iteration 38 Energy -92.33519541
C       -0.5839388471   -0.9231693229    0.0108367566
N       -0.0783459027    0.1369354547    0.0004238658
H        0.6673582062    0.7876096145   -0.0107270675
3    
Iteration 37 Energy -92.33405950
C       -0.5740855968   -0.9238288731    0.0107320780
N       -0.0917964308    0.1489181873    0.0005156864
H        0.6709554841    0.7762864320   -0.0107142095
3    
Iteration 36 Energy -92.33279853
C       -0.5645544282   -0.9249818268    0.0106331945
N       -0.1065187328    0.1599428252    0.0006258258
H        0.6761466175    0.7664147478   -0.0107254654
3    
Iteration 35 Energy -92.33142285
C       -0.5542677510   -0.9250783088    0.0105211827
N       -0.1206456681    0.1713866158    0.0007275248
H        0.6799868756    0.7550674391   -0.0107151526
3    
Iteration 34 Energy -92.32993151
C       -0.5437322342   -0.9248061160    0.0104047514
N       -0.1350208991    0.1826033530    0.0008329847
H        0.6838265898    0.7435785091   -0.0107041811
3    
Iteration 33 Energy -92.32832517
C       -0.5327148338   -0.9238328988    0.0102798212
N       -0.1492166591    0.1938739066    0.0009362345
H        0.6870049494    0.7313347383   -0.0106825008
3    
Iteration 32 Energy -92.32660169
C       -0.5213467779   -0.9223202546    0.0101485716
N       -0.1634393428    0.2050344344    0.0010402857
H        0.6898595772    0.7186615664   -0.0106553024
3    
Iteration 31 Energy -92.32475874
C       -0.5095736206   -0.9201812979    0.0100100069
N       -0.1775609718    0.2161458008    0.0011434587
H        0.6922080488    0.7054112433   -0.0106199107
3    
Iteration 30 Energy -92.32279281
C       -0.4974481325   -0.9174686245    0.0098649464
N       -0.1916431149    0.2271451475    0.0012467163
H        0.6941647039    0.6916992232   -0.0105781078
3    
Iteration 29 Energy -92.32070017
C       -0.4849631163   -0.9141577418    0.0097131985
N       -0.2056335980    0.2380409152    0.0013494492
H        0.6956701708    0.6774925728   -0.0105290928
3    
Iteration 28 Energy -92.31847693
C       -0.4721533438   -0.9102767441    0.0095552729
N       -0.2195557295    0.2487966614    0.0014520802
H        0.6967825299    0.6628558288   -0.0104737982
3    
Iteration 27 Energy -92.31611973
C       -0.4590276813   -0.9058225536    0.0093912522
N       -0.2333822499    0.2594066554    0.0015543376
H        0.6974833878    0.6477916445   -0.0104120350
3    
Iteration 26 Energy -92.31362617
C       -0.4456165810   -0.9008184253    0.0092215766
N       -0.2471269788    0.2698438591    0.0016564972
H        0.6978170163    0.6323503125   -0.0103445190
3    
Iteration 25 Energy -92.31099549
C       -0.4319344317   -0.8952699007    0.0090464290
N       -0.2607733409    0.2800997465    0.0017584171
H        0.6977812290    0.6165459004   -0.0102712912
3    
Iteration 24 Energy -92.30822908
C       -0.4180104270   -0.8891998114    0.0088662336
N       -0.2743356373    0.2901518132    0.0018603573
H        0.6974195208    0.6004237444   -0.0101930359
3    
Iteration 23 Energy -92.30533113
C       -0.4038592047   -0.8826159200    0.0086811862
N       -0.2878016061    0.2999930839    0.0019622158
H        0.6967342672    0.5839985822   -0.0101098472
3    
Iteration 22 Energy -92.30230901
C       -0.3895103761   -0.8755418255    0.0084917195
N       -0.3011916970    0.3096025294    0.0020643133
H        0.6957755296    0.5673150423   -0.0100224778
3    
Iteration 21 Energy -92.29917368
C       -0.3749747039   -0.8679824801    0.0082979737
N       -0.3144909901    0.3189775168    0.0021664986
H        0.6945391505    0.5503807095   -0.0099309175
3    
Iteration 20 Energy -92.29593982
C       -0.3602874229   -0.8599655824    0.0081004619
N       -0.3277366579    0.3280928418    0.0022692944
H        0.6930975374    0.5332484868   -0.0098362014
3    
Iteration 19 Energy -92.29262570
C       -0.3454454472   -0.8514833742    0.0078991145
N       -0.3408900890    0.3369575690    0.0023722368
H        0.6914089927    0.5159015514   -0.0097377963
3    
Iteration 18 Energy -92.28925303
C       -0.3304969483   -0.8425738701    0.0076946332
N       -0.3540178197    0.3455385730    0.0024762057
H        0.6895882245    0.4984110433   -0.0096372841
3    
Iteration 17 Energy -92.28584630
C       -0.3154527407   -0.8332388120    0.0074871445
N       -0.3671124822    0.3538313312    0.0025811416
H        0.6876386794    0.4807832270   -0.0095347312
3    
Iteration 16 Energy -92.28243199
C       -0.3003411659   -0.8234941476    0.0072770315
N       -0.3802016004    0.3618190286    0.0026874228
H        0.6856162228    0.4630508652   -0.0094308994
3    
Iteration 15 Energy -92.27903760
C       -0.2851953599   -0.8133567210    0.0070647343
N       -0.3933212170    0.3694817044    0.0027955353
H        0.6835900334    0.4452507628   -0.0093267146
3    
Iteration 14 Energy -92.27569053
C       -0.2700570045   -0.8028460459    0.0068507983
N       -0.4065213164    0.3767941232    0.0029061418
H        0.6816517774    0.4274276688   -0.0092233852
3    
Iteration 13 Energy -92.27241685
C       -0.2549804147   -0.7919856487    0.0066359258
N       -0.4198704792    0.3837237962    0.0030201419
H        0.6799243504    0.4096375987   -0.0091225128
3    
Iteration 12 Energy -92.26924018
C       -0.2400377776   -0.7808046839    0.0064210404
N       -0.4334603387    0.3902288246    0.0031387303
H        0.6785715728    0.3919516055   -0.0090262158
3    
Iteration 11 Energy -92.26618079
C       -0.2253248209   -0.7693396524    0.0062073567
N       -0.4474073231    0.3962563114    0.0032634238
H        0.6778056005    0.3744590872   -0.0089372256
3    
Iteration 10 Energy -92.26325526
C       -0.2109656994   -0.7576361672    0.0059964423
N       -0.4618488393    0.4017422066    0.0033960196
H        0.6778879952    0.3572697068   -0.0088589070
3    
Iteration 9 Energy -92.26047716
C       -0.1971114878   -0.7457490313    0.0057902013
N       -0.4769265472    0.4066156989    0.0035383927
H        0.6791114916    0.3405090786   -0.0087950391
3    
Iteration 8 Energy -92.25785921
C       -0.1839255360   -0.7337382813    0.0055906962
N       -0.4927542239    0.4108103758    0.0036920931
H        0.6817532164    0.3243036518   -0.0087492344
3    
Iteration 7 Energy -92.25541683
C       -0.1715524261   -0.7216592361    0.0053997625
N       -0.5093791836    0.4142811103    0.0038578459
H        0.6860050662    0.3087538720   -0.0087240535
3    
Iteration 6 Energy -92.25317219
C       -0.1600842647   -0.7095503495    0.0052185845
N       -0.5267633215    0.4170172901    0.0040352836
H        0.6919210427    0.2939088056   -0.0087203131
3    
Iteration 5 Energy -92.25115685
C       -0.1495451283   -0.6974262492    0.0050474926
N       -0.5447980097    0.4190434569    0.0042231054
H        0.6994165945    0.2797585385   -0.0087370431
3    
Iteration 4 Energy -92.24941140
C       -0.1399027670   -0.6852806778    0.0048861056
N       -0.5633410874    0.4204074010    0.0044195369
H        0.7083173109    0.2662490230   -0.0087720876
3    
Iteration 3 Energy -92.24798183
C       -0.1310820229   -0.6730876014    0.0047334817
N       -0.5822477517    0.4211687542    0.0046227205
H        0.7184032311    0.2532945935   -0.0088226473
3    
Iteration 2 Energy -92.24691582
C       -0.1225888879   -0.6606479493    0.0045833030
N       -0.6010504292    0.4215220680    0.0048266477
H        0.7287127736    0.2405016276   -0.0088763958
3    
Iteration 1 Energy -92.24625946
C       -0.1163050072   -0.6488151146    0.0044600730
N       -0.6209498566    0.4209157301    0.0050469875
H        0.7423283203    0.2292751307   -0.0089735056
3    
Iteration 1 Energy -92.24626471
C       -0.1014849724   -0.6238538629    0.0041830197
N       -0.6574628830    0.4198786984    0.0054509362
H        0.7640213119    0.2053509107   -0.0091004010
3    
Iteration 2 Energy -92.24696331
C       -0.0968326833   -0.6117407520    0.0040763350
N       -0.6770788650    0.4181784119    0.0056732189
H        0.7789850048    0.1949380863   -0.0092159990
3    
Iteration 3 Energy -92.24815469
C       -0.0903859629   -0.5984024281    0.0039443865
N       -0.6955427188    0.4165587515    0.0058825347
H        0.7910021382    0.1832194228   -0.0092933663
3    
Iteration 4 Energy -92.24982889
C       -0.0850751193   -0.5851902870    0.0038254373
N       -0.7143304339    0.4144672694    0.0060975655
H        0.8044790097    0.1720987639   -0.0093894478
3    
Iteration 5 Energy -92.25196511
C       -0.0798911234   -0.5717054932    0.0037066182
N       -0.7327913167    0.4121005677    0.0063102916
H        0.8177558966    0.1609806718   -0.0094833549
3    
Iteration 6 Energy -92.25453410
C       -0.0749662066   -0.5580070910    0.0035896470
N       -0.7509944145    0.4094458989    0.0065215267
H        0.8310340776    0.1499369383   -0.0095776189
3    
Iteration 7 Energy -92.25749754
C       -0.0702516267   -0.5440827594    0.0034739341
N       -0.7688985946    0.4065185721    0.0067307506
H        0.8442236779    0.1389399336   -0.0096711298
3    
Iteration 8 Energy -92.26081059
C       -0.0657288812   -0.5299324756    0.0033592770
N       -0.7864818214    0.4033285856    0.0069376762
H        0.8572841591    0.1279796361   -0.0097633983
3    
Iteration 9 Energy -92.26442403
C       -0.0613803124   -0.5155568706    0.0032454856
N       -0.8037229474    0.3998849643    0.0071420308
H        0.8701767164    0.1170476524   -0.0098539615
3    
Iteration 10 Energy -92.26828647
C       -0.0571921699   -0.5009583847    0.0031324208
N       -0.8206034120    0.3961956538    0.0073435748
H        0.8828690384    0.1061384771   -0.0099424408
3    
Iteration 11 Energy -92.27234632
C       -0.0531533086   -0.4861407646    0.0030199782
N       -0.8371063916    0.3922678628    0.0075420912
H        0.8953331567    0.0952486479   -0.0100285144
3    
Iteration 12 Energy -92.27655349
C       -0.0492545559   -0.4711088066    0.0029080794
N       -0.8532163624    0.3881082611    0.0077373794
H        0.9075443749    0.0843762917   -0.0101119039
3    
Iteration 13 Energy -92.28086071
C       -0.0454879172   -0.4558680872    0.0027966628
N       -0.8689186848    0.3837231621    0.0079292503
H        0.9194800585    0.0735206713   -0.0101923582
3    
Iteration 14 Energy -92.28522449
C       -0.0418460537   -0.4404247587    0.0026856766
N       -0.8841992137    0.3791185946    0.0081175215
H        0.9311187239    0.0626819103   -0.0102696432
3    
Iteration 15 Energy -92.28960565
C       -0.0383226155   -0.4247856042    0.0025750825
N       -0.8990442581    0.3743002933    0.0083020169
H        0.9424403301    0.0518610571   -0.0103435446
3    
Iteration 16 Energy -92.29396959
C       -0.0349051801   -0.4089561840    0.0024647704
N       -0.9134379794    0.3692741578    0.0084825362
H        0.9534166160    0.0410577724   -0.0104137518
3    
Iteration 17 Energy -92.29828626
C       -0.0315898224   -0.3929446348    0.0023547349
N       -0.9273679825    0.3640454371    0.0086589196
H        0.9640312614    0.0302749439   -0.0104800997
3    
Iteration 18 Energy -92.30252990
C       -0.0283662271   -0.3767577800    0.0022448947
N       -0.9408187771    0.3586193132    0.0088309740
H        0.9742584607    0.0195142130   -0.0105423138
3    
Iteration 19 Energy -92.30667870
C       -0.0252255106   -0.3604032270    0.0021351876
N       -0.9537758648    0.3530008005    0.0089985177
H        0.9840748320    0.0087781727   -0.0106001504
3    
Iteration 20 Energy -92.31071436
C       -0.0221581165   -0.3438888150    0.0020255454
N       -0.9662243260    0.3471946948    0.0091613655
H        0.9934558990   -0.0019301335   -0.0106533560
3    
Iteration 21 Energy -92.31462163
C       -0.0191548385   -0.3272228914    0.0019159058
N       -0.9781495533    0.3412056509    0.0093193363
H        1.0023778483   -0.0126070134   -0.0107016872
3    
Iteration 22 Energy -92.31838785
C       -0.0162068264   -0.3104143177    0.0018062130
N       -0.9895372497    0.3350382146    0.0094722528
H        1.0108175326   -0.0232481508   -0.0107449109
3    
Iteration 23 Energy -92.32200251
C       -0.0133059146   -0.2934725466    0.0016964213
N       -1.0003736769    0.3286968866    0.0096199440
H        1.0187530480   -0.0338485938   -0.0107828104
3    
Iteration 24 Energy -92.32545688
C       -0.0104447126   -0.2764076395    0.0015864962
N       -1.0106457305    0.3221861738    0.0097622461
H        1.0261638996   -0.0444027882   -0.0108151874
3    
Iteration 25 Energy -92.32874362
C       -0.0076168403   -0.2592303115    0.0014764173
N       -1.0203411237    0.3155106610    0.0098990034
H        1.0330314204   -0.0549046034   -0.0108418659
3    
Iteration 26 Energy -92.33185646
C       -0.0048167121   -0.2419519005    0.0013661760
N       -1.0294482142    0.3086750348    0.0100300672
H        1.0393383828   -0.0653473882   -0.0108626883
3    
Iteration 27 Energy -92.33478991
C       -0.0020397825   -0.2245844306    0.0012557777
N       -1.0379561702    0.3016841632    0.0101552966
H        1.0450694093   -0.0757239864   -0.0108775194
3    
Iteration 28 Energy -92.33753899
C        0.0007176668   -0.2071406363    0.0011452407
N       -1.0458547246    0.2945431246    0.0102745559
H        1.0502105143   -0.0860267421   -0.0108862417
3    
Iteration 29 Energy -92.34009890
C        0.0034584158   -0.1896340828    0.0010345971
N       -1.0531341323    0.2872572899    0.0103877138
H        1.0547491731   -0.0962474609   -0.0108887560
3    
Iteration 30 Energy -92.34246479
C        0.0061843659   -0.1720793536    0.0009238932
N       -1.0597848826    0.2798324035    0.0104946400
H        1.0586739731   -0.1063773037   -0.0108849783
3    
Iteration 31 Energy -92.34463145
C        0.0088963197   -0.1544924048    0.0008131938
N       -1.0657975006    0.2722747488    0.0105952018
H        1.0619746373   -0.1164065978   -0.0108748407
3    
Iteration 32 Energy -92.34659315
C        0.0115937580   -0.1368911555    0.0007025872
N       -1.0711621189    0.2645913964    0.0106892588
H        1.0646418174   -0.1263244947   -0.0108582911
3    
Iteration 33 Energy -92.34834340
C        0.0142742186   -0.1192965024    0.0005921966
N       -1.0758680396    0.2567906619    0.0107766557
H        1.0666672774   -0.1361184133   -0.0108352974
3    
Iteration 34 Energy -92.34987498
C        0.0169324732   -0.1017340862    0.0004821973
N       -1.0799028605    0.2488828789    0.0108572094
H        1.0680438438   -0.1457730465   -0.0108058518
3    
Iteration 35 Energy -92.35118009
C        0.0195588994   -0.0842375543    0.0003728497
N       -1.0832511844    0.2408818688    0.0109306877
H        1.0687657415   -0.1552685683   -0.0107699825
3    
Iteration 36 Energy -92.35225080
C        0.0221369139   -0.0668551876    0.0002645574
N       -1.0858917230    0.2328078421    0.0109967649
H        1.0688282655   -0.1645769082   -0.0107277674
3    
Iteration 37 Energy -92.35307974
C        0.0246369351   -0.0496654035    0.0001580053
N       -1.0877913453    0.2246942792    0.0110549244
H        1.0682278667   -0.1736531295   -0.0106793748
3    
Iteration 38 Energy -92.35366123
C        0.0270011319   -0.0328226214    0.0000545373
N       -1.0888874903    0.2166080656    0.0111041741
H        1.0669598149   -0.1824096980   -0.0106251564
3    
Iteration 39 Energy -92.35399309
C        0.0290761102   -0.0167647492   -0.0000421516
N       -1.0890220771    0.2087426292    0.0111418942
H        1.0650194235   -0.1906021339   -0.0105661877
3    
Iteration 40 Energy -92.35408315
C        0.0299529158   -0.0048225325   -0.0001067743
N       -1.0874285354    0.2026329961    0.0111526302
H        1.0625490761   -0.1964347173   -0.0105123011
3    
Iteration 41 Energy -92.35408315
C        0.0299590645   -0.0047883798   -0.0001069989
N       -1.0874308923    0.2026164826    0.0111527321
H        1.0625452843   -0.1964523566   -0.0105121783
3    
Iteration 42 Energy -92.35408315
C        0.0299589380   -0.0047891107   -0.0001060619
N       -1.0874308409    0.2026168354    0.0111522822
H        1.0625453593   -0.1964519785   -0.0105126654
