3    
Iteration 49 Energy -92.33720861
C       -0.6320188782   -0.8810958654    0.0111684786
N        0.0364737305    0.0678300376   -0.0005128898
H        0.6006186042    0.8146415740   -0.0101220339
3    
Iteration 48 Energy -92.33964638
C       -0.6410998519   -0.8956874812    0.0113350013
N        0.0238216346    0.0556233728   -0.0003183180
H        0.6223516739    0.8414398546   -0.0104831284
3    
Iteration 47 Energy -92.33948677
C       -0.6396865524   -0.8996350268    0.0113377435
N        0.0164966480    0.0586142880   -0.0002520235
H        0.6282633609    0.8423964850   -0.0105521651
3    
Iteration 46 Energy -92.33920555
C       -0.6306764618   -0.8953440907    0.0112194677
N        0.0141089138    0.0721142534   -0.0002881364
H        0.6216410045    0.8246055835   -0.0103977763
3    
Iteration 45 Energy -92.33919428
C       -0.6293384422   -0.9048309126    0.0112485613
N       -0.0018331339    0.0758725588   -0.0001311747
H        0.6362450326    0.8303341001   -0.0105838317
3    
Iteration 44 Energy -92.33744884
C       -0.6330267006   -0.9169329936    0.0113446562
N       -0.0169498166    0.0721422114    0.0000512764
H        0.6550499736    0.8461665284   -0.0108623777
3    
Iteration 43 Energy -92.33881040
C       -0.6215646892   -0.9050684242    0.0111646713
N       -0.0099280121    0.0876494860   -0.0000969549
H        0.6365661578    0.8187946843   -0.0105341615
3    
Iteration 42 Energy -92.33832352
C       -0.6206740121   -0.9135583502    0.0111940611
N       -0.0246578812    0.0900826011    0.0000528624
H        0.6504053498    0.8248514953   -0.0107133685
3    
Iteration 41 Energy -92.33789829
C       -0.6101139804   -0.9097393509    0.0110610159
N       -0.0295809832    0.1045650999    0.0000399385
H        0.6447684201    0.8065499972   -0.0105673995
3    
Iteration 40 Energy -92.33733994
C       -0.6071595278   -0.9174957481    0.0110644634
N       -0.0467153103    0.1088385961    0.0002075603
H        0.6589482947    0.8100328982   -0.0107384688
3    
Iteration 39 Energy -92.33659971
C       -0.5969296364   -0.9170468688    0.0109505590
N       -0.0572167653    0.1226160092    0.0002588698
H        0.6592198583    0.7958066058   -0.0106758739
3    
Iteration 38 Energy -92.33563529
C       -0.5888144652   -0.9202252214    0.0108764898
N       -0.0729355630    0.1328526000    0.0003835350
H        0.6668234847    0.7887483675   -0.0107264699
3    
Iteration 37 Energy -92.33454131
C       -0.5792763380   -0.9214025412    0.0107776425
N       -0.0868347520    0.1445785139    0.0004814440
H        0.6711845465    0.7781997735   -0.0107255316
3    
Iteration 36 Energy -92.33332306
C       -0.5696568299   -0.9225192133    0.0106776259
N       -0.1014296763    0.1558068621    0.0005892521
H        0.6761599627    0.7680880974   -0.0107333231
3    
Iteration 35 Energy -92.33198794
C       -0.5594868642   -0.9228526876    0.0105679822
N       -0.1157179121    0.1672160485    0.0006928740
H        0.6802782329    0.7570123852   -0.0107273013
3    
Iteration 34 Energy -92.33053517
C       -0.5489660963   -0.9226817056    0.0104521786
N       -0.1300953556    0.1785128106    0.0007979892
H        0.6841349083    0.7455446412   -0.0107166129
3    
Iteration 33 Energy -92.32896523
C       -0.5380136621   -0.9218762545    0.0103287319
N       -0.1443657463    0.1898062427    0.0009019494
H        0.6874528649    0.7334457580   -0.0106971264
3    
Iteration 32 Energy -92.32727625
C       -0.5266830730   -0.9204962728    0.0101985033
N       -0.1586141289    0.2010190142    0.0010060408
H        0.6903706583    0.7208530048   -0.0106709892
3    
Iteration 31 Energy -92.32546604
C       -0.5149617182   -0.9185092260    0.0100612050
N       -0.1727791255    0.2121668712    0.0011095198
H        0.6928143002    0.7077181010   -0.0106371699
3    
Iteration 30 Energy -92.32353123
C       -0.5028789790   -0.9159382211    0.0099172647
N       -0.1868854164    0.2232114107    0.0012128331
H        0.6948378520    0.6941025566   -0.0105965429
3    
Iteration 29 Energy -92.32146821
C       -0.4904408717   -0.9127756568    0.0097667132
N       -0.2009045161    0.2341468774    0.0013156959
H        0.6964188443    0.6800045256   -0.0105488542
3    
Iteration 28 Energy -92.31927310
C       -0.4776723064   -0.9090376279    0.0096098969
N       -0.2148431515    0.2449468225    0.0014183036
H        0.6975889144    0.6654665516   -0.0104946456
3    
Iteration 27 Energy -92.31694248
C       -0.4645893119   -0.9047297135    0.0094470169
N       -0.2286891227    0.2555972097    0.0015205875
H        0.6983518912    0.6505082499   -0.0104340495
3    
Iteration 26 Energy -92.31447378
C       -0.4512145402   -0.8998660314    0.0092783857
N       -0.2424416799    0.2660789407    0.0016226275
H        0.6987296766    0.6351628368   -0.0103674583
3    
Iteration 25 Energy -92.31186596
C       -0.4375697211   -0.8944602707    0.0091043040
N       -0.2560993290    0.2763753515    0.0017244840
H        0.6987425066    0.6194606655   -0.0102952331
3    
Iteration 24 Energy -92.30912002
C       -0.4236765916   -0.8885269056    0.0089250763
N       -0.2696618226    0.2864712086    0.0018262245
H        0.6984118706    0.6034314432   -0.0102177459
3    
Iteration 23 Energy -92.30623964
C       -0.4095574158   -0.8820815070    0.0087410176
N       -0.2831322148    0.2963516144    0.0019279511
H        0.6977630871    0.5871056389   -0.0101354137
3    
Iteration 22 Energy -92.30323161
C       -0.3952327469   -0.8751383572    0.0085524184
N       -0.2965124198    0.3060042282    0.0020297415
H        0.6968186232    0.5705098752   -0.0100486050
3    
Iteration 21 Energy -92.30010627
C       -0.3807250458   -0.8677135993    0.0083595987
N       -0.3098107849    0.3154151920    0.0021317509
H        0.6956092872    0.5536741534   -0.0099577947
3    
Iteration 20 Energy -92.29687763
C       -0.3660538536   -0.8598201336    0.0081628316
N       -0.3230323481    0.3245734622    0.0022340853
H        0.6941596582    0.5366224176   -0.0098633620
3    
Iteration 19 Energy -92.29356340
C       -0.3512375662   -0.8514696940    0.0079623723
N       -0.3361814864    0.3334694978    0.0023368364
H        0.6924925092    0.5193759425   -0.0097656538
3    
Iteration 18 Energy -92.29018484
C       -0.3363045697   -0.8426838502    0.0077586304
N       -0.3492851360    0.3420873039    0.0024403725
H        0.6906631623    0.5019722925   -0.0096654480
3    
Iteration 17 Energy -92.28676601
C       -0.3212676332   -0.8334638263    0.0075517513
N       -0.3623377936    0.3504185289    0.0025446719
H        0.6886788833    0.4844210436   -0.0095628683
3    
Iteration 16 Energy -92.28333329
C       -0.3061546360   -0.8238270883    0.0073421202
N       -0.3753660687    0.3584476167    0.0026500971
H        0.6865941611    0.4667552178   -0.0094586625
3    
Iteration 15 Energy -92.27991430
C       -0.2909961634   -0.8137894841    0.0071301445
N       -0.3884009081    0.3661562987    0.0027570708
H        0.6844705280    0.4490089315   -0.0093536604
3    
Iteration 14 Energy -92.27653690
C       -0.2758311762   -0.8033696987    0.0069163363
N       -0.4014875319    0.3735208221    0.0028661967
H        0.6823921646    0.4312246228   -0.0092489780
3    
Iteration 13 Energy -92.27322794
C       -0.2607123495   -0.7925913571    0.0067013802
N       -0.4146928809    0.3805090276    0.0029783548
H        0.6804786869    0.4134580757   -0.0091461801
3    
Iteration 12 Energy -92.27001216
C       -0.2457134692   -0.7814854730    0.0064862259
N       -0.4281140548    0.3870766829    0.0030948105
H        0.6789009805    0.3957845363   -0.0090474815
3    
Iteration 11 Energy -92.26691113
C       -0.2309373762   -0.7700926990    0.0062721850
N       -0.4418831659    0.3931646615    0.0032172806
H        0.6778939986    0.3783037837   -0.0089559107
3    
Iteration 10 Energy -92.26394272
C       -0.2165312927   -0.7584693150    0.0060611264
N       -0.4561762426    0.3986928656    0.0033480586
H        0.6777809918    0.3611521956   -0.0088756301
3    
Iteration 9 Energy -92.26112103
C       -0.2026832296   -0.7466850773    0.0058554268
N       -0.4711831491    0.4035676481    0.0034896518
H        0.6789398352    0.3444931753   -0.0088115237
3    
Iteration 8 Energy -92.25845765
C       -0.1896012929   -0.7348172682    0.0056577176
N       -0.4870557301    0.4076984250    0.0036441375
H        0.6817304795    0.3284945894   -0.0087683002
3    
Iteration 7 Energy -92.25596493
C       -0.1774580306   -0.7229318385    0.0054701890
N       -0.5038342461    0.4110286580    0.0038122166
H        0.6863657332    0.3132789267   -0.0087488507
3    
Iteration 6 Energy -92.25366158
C       -0.1663443262   -0.7110681503    0.0052940160
N       -0.5214213982    0.4135534734    0.0039928478
H        0.6928391809    0.2988904231   -0.0087533088
3    
Iteration 5 Energy -92.25157779
C       -0.1562517550   -0.6992334759    0.0051291399
N       -0.5395974792    0.4153180950    0.0041834207
H        0.7009226907    0.2852911271   -0.0087790057
3    
Iteration 4 Energy -92.24975627
C       -0.1470981562   -0.6874173917    0.0049746146
N       -0.5580479255    0.4163968067    0.0043801541
H        0.7102195382    0.2723963312   -0.0088212139
3    
Iteration 3 Energy -92.24824868
C       -0.1386602332   -0.6755900859    0.0048278616
N       -0.5763226417    0.4169288695    0.0045774857
H        0.7200563313    0.2600369626   -0.0088717924
3    
Iteration 2 Energy -92.24708291
C       -0.1328336144   -0.6647596963    0.0047142504
N       -0.5944199169    0.4162465478    0.0047784742
H        0.7323269879    0.2498888947   -0.0089591696
3    
Iteration 1 Energy -92.24630905
C       -0.1172922879   -0.6502123990    0.0044773057
N       -0.6023562251    0.4184374342    0.0048551389
H        0.7247219696    0.2331507110   -0.0087988897
3    
Iteration 1 Energy -92.24578960
C       -0.1087700071   -0.6355047861    0.0043163562
N       -0.6585846778    0.4228608194    0.0054494564
H        0.7724281414    0.2140197129   -0.0092322577
3    
Iteration 2 Energy -92.24554446
C       -0.0905298207   -0.6267694784    0.0040766923
N       -0.6477449420    0.4266605892    0.0053134421
H        0.7433482193    0.2014846354   -0.0088565794
3    
Iteration 3 Energy -92.24622681
C       -0.1002007022   -0.6249932906    0.0041742309
N       -0.6643436336    0.4224187969    0.0055144519
H        0.7696177923    0.2039502399   -0.0091551279
3    
Iteration 4 Energy -92.24698842
C       -0.0948614868   -0.6122022201    0.0040569121
N       -0.6813390211    0.4203723764    0.0057096808
H        0.7812739644    0.1932055900   -0.0092330380
3    
Iteration 5 Energy -92.24820710
C       -0.0872377815   -0.5982414781    0.0039092281
N       -0.6986260626    0.4188817799    0.0059055366
H        0.7909373005    0.1807354444   -0.0092812098
3    
Iteration 6 Energy -92.24979487
C       -0.0873356925   -0.5875368284    0.0038609647
N       -0.7192489668    0.4158518586    0.0061449550
H        0.8116581158    0.1730607160   -0.0094723649
3    
Iteration 7 Energy -92.25144367
C       -0.0735359059   -0.5725052430    0.0036408271
N       -0.7286735371    0.4153078725    0.0062504938
H        0.8072828995    0.1585731167   -0.0093577660
3    
Iteration 8 Energy -92.25396431
C       -0.0714653050   -0.5601190654    0.0035611076
N       -0.7478188515    0.4123417747    0.0064734647
H        0.8243576130    0.1491530369   -0.0095010174
3    
Iteration 9 Energy -92.25686147
C       -0.0679049276   -0.5466449994    0.0034600878
N       -0.7661996048    0.4093203120    0.0066883324
H        0.8391779889    0.1387004337   -0.0096148653
3    
Iteration 10 Energy -92.26011780
C       -0.0646558187   -0.5329532966    0.0033614678
N       -0.7844611949    0.4060394391    0.0069030929
H        0.8541904702    0.1282896036   -0.0097310058
3    
Iteration 11 Energy -92.26366759
C       -0.0602804562   -0.5185368106    0.0032471951
N       -0.8016214494    0.4026193391    0.0071064550
H        0.8669753620    0.1172932177   -0.0098200952
3    
Iteration 12 Energy -92.26747807
C       -0.0570718133   -0.5042818979    0.0031464219
N       -0.8190644167    0.3989032702    0.0073142718
H        0.8812096865    0.1067543739   -0.0099271388
3    
Iteration 13 Energy -92.27148329
C       -0.0524276921   -0.4892468460    0.0030263603
N       -0.8351254862    0.3950272360    0.0075077185
H        0.8926266348    0.0955953562   -0.0100005239
3    
Iteration 14 Energy -92.27564617
C       -0.0496907216   -0.4746330882    0.0029290898
N       -0.8519261306    0.3908765476    0.0077105163
H        0.9066903087    0.0851322868   -0.0101060511
3    
Iteration 15 Energy -92.27989361
C       -0.0444411981   -0.4589602477    0.0027994705
N       -0.8665241799    0.3865501128    0.0078900446
H        0.9160388345    0.0737858811   -0.0101559602
3    
Iteration 16 Energy -92.28315170
C       -0.0499114082   -0.4492904524    0.0028147077
N       -0.8841230463    0.3828622704    0.0080994357
H        0.9391079109    0.0678039282   -0.0103805884
3    
Iteration 17 Energy -92.28754456
C       -0.0423148201   -0.4329057571    0.0026561490
N       -0.8959388658    0.3781820017    0.0082501787
H        0.9433271423    0.0560995016   -0.0103727728
3    
Iteration 18 Energy -92.29189869
C       -0.0372827103   -0.4167692060    0.0025267695
N       -0.9092983549    0.3732190239    0.0084191004
H        0.9516545217    0.0449259283   -0.0104123150
3    
Iteration 19 Energy -92.29621452
C       -0.0336182369   -0.4007684172    0.0024129669
N       -0.9230933462    0.3680656091    0.0085936608
H        0.9617850396    0.0340785542   -0.0104730728
3    
Iteration 20 Energy -92.30047637
C       -0.0297153782   -0.3844907236    0.0022952821
N       -0.9361792597    0.3626902542    0.0087614922
H        0.9709680945    0.0231762156   -0.0105232195
3    
Iteration 21 Energy -92.30465263
C       -0.0267934351   -0.3682847988    0.0021886517
N       -0.9494021456    0.3571696936    0.0089314903
H        0.9812690372    0.0124908514   -0.0105865871
3    
Iteration 22 Energy -92.30872742
C       -0.0229035574   -0.3516582135    0.0020695009
N       -0.9613864508    0.3513925806    0.0090891302
H        0.9893634647    0.0016413791   -0.0106250762
3    
Iteration 23 Energy -92.31267555
C       -0.0209095887   -0.3353465251    0.0019725280
N       -0.9741433842    0.3455819754    0.0092553710
H        1.0001264294   -0.0088597041   -0.0106943441
3    
Iteration 24 Energy -92.31648025
C       -0.0162917473   -0.3183173951    0.0018435637
N       -0.9844241345    0.3393768537    0.0093963598
H        1.0057893383   -0.0196837124   -0.0107063686
3    
Iteration 25 Energy -92.32012320
C       -0.0157364777   -0.3021078634    0.0017627897
N       -0.9970018033    0.3334139721    0.0095613426
H        1.0178117375   -0.0299303624   -0.0107905775
3    
Iteration 26 Energy -92.32321344
C       -0.0072668563   -0.2854662757    0.0015935029
N       -1.0029169268    0.3270552178    0.0096553133
H        1.0152572396   -0.0402131959   -0.0107152613
3    
Iteration 27 Energy -92.32664239
C       -0.0082153793   -0.2693873122    0.0015297705
N       -1.0154280310    0.3210594272    0.0098197201
H        1.0287168668   -0.0502963688   -0.0108159357
3    
Iteration 28 Energy -92.32985651
C       -0.0054100768   -0.2522004990    0.0014198947
N       -1.0247438114    0.3143280951    0.0099525847
H        1.0352273447   -0.0607518499   -0.0108389245
3    
Iteration 29 Energy -92.33289776
C       -0.0028617335   -0.2349722576    0.0013126371
N       -1.0336082703    0.3074708046    0.0100810958
H        1.0415434603   -0.0711228008   -0.0108601780
3    
Iteration 30 Energy -92.33575863
C       -0.0002397792   -0.2176538622    0.0012041593
N       -1.0417957117    0.3004513195    0.0102029531
H        1.0471089474   -0.0814217110   -0.0108735575
3    
Iteration 31 Energy -92.33843482
C        0.0023852674   -0.2002706211    0.0010953488
N       -1.0493548703    0.2932852318    0.0103186175
H        1.0520430593   -0.0916388645   -0.0108804114
3    
Iteration 32 Energy -92.34092160
C        0.0050148400   -0.1828375235    0.0009862591
N       -1.0562772978    0.2859782615    0.0104279703
H        1.0563359143   -0.1017649917   -0.0108806744
3    
Iteration 33 Energy -92.34321400
C        0.0076446888   -0.1653718447    0.0008770162
N       -1.0625575354    0.2785375085    0.0105309190
H        1.0599863031   -0.1117899176   -0.0108743803
3    
Iteration 34 Energy -92.34530670
C        0.0102662344   -0.1478920884    0.0007677992
N       -1.0681932617    0.2709712444    0.0106274002
H        1.0630004837   -0.1217034099   -0.0108616445
3    
Iteration 35 Energy -92.34719368
C        0.0128763991   -0.1304190380    0.0006587375
N       -1.0731752681    0.2632878548    0.0107172746
H        1.0653723255   -0.1314930706   -0.0108424572
3    
Iteration 36 Energy -92.34886820
C        0.0154676430   -0.1129779506    0.0005500300
N       -1.0774946337    0.2554979934    0.0108003955
H        1.0671004471   -0.1411442965   -0.0108168706
3    
Iteration 37 Energy -92.35032284
C        0.0180287356   -0.0956010185    0.0004419477
N       -1.0811401301    0.2476154656    0.0108765766
H        1.0681848510   -0.1506387009   -0.0107849694
3    
Iteration 38 Energy -92.35154975
C        0.0205483898   -0.0783335555    0.0003348230
N       -1.0840905670    0.2396588214    0.0109455006
H        1.0686156337   -0.1599495197   -0.0107467687
3    
Iteration 39 Energy -92.35254113
C        0.0229982466   -0.0612450163    0.0002292859
N       -1.0863229217    0.2316587748    0.0110067745
H        1.0683981316   -0.1690380123   -0.0107025055
3    
Iteration 40 Energy -92.35329009
C        0.0253342205   -0.0444555286    0.0001263720
N       -1.0877959947    0.2236685847    0.0110597023
H        1.0675352307   -0.1778373098   -0.0106525194
3    
Iteration 41 Energy -92.35379173
C        0.0274780722   -0.0282149059    0.0000280880
N       -1.0884277774    0.2157995348    0.0111028746
H        1.0660231618   -0.1862088827   -0.0105974077
3    
Iteration 42 Energy -92.35401130
C        0.0282191368   -0.0178203303   -0.0000279182
N       -1.0868790329    0.2104482515    0.0111106054
H        1.0637333525   -0.1912521750   -0.0105491323
3    
Iteration 43 Energy -92.35406031
C        0.0291889129   -0.0092453289   -0.0000780390
N       -1.0851055950    0.2059045518    0.0111121579
H        1.0609901386   -0.1952834767   -0.0105005640
3    
Iteration 44 Energy -92.35406379
C        0.0290208613   -0.0052767904   -0.0000944913
N       -1.0897925190    0.2048704556    0.0111681623
H        1.0658451142   -0.1982179190   -0.0105401161
3    
Iteration 45 Energy -92.35205442
C        0.0456889779   -0.0096683359   -0.0002564723
N       -1.0724341158    0.2022341957    0.0109905455
H        1.0318185945   -0.1911901136   -0.0102005183
3    
Iteration 46 Energy -92.35362413
C        0.0365271393   -0.0084981624   -0.0001617057
N       -1.0784244039    0.2035999344    0.0110497386
H        1.0469707211   -0.1937260258   -0.0103544780
3    
Iteration 47 Energy -92.35337626
C        0.0191547892   -0.0052039230    0.0000130312
N       -1.0954209986    0.2067266550    0.0112211397
H        1.0813396659   -0.2001469858   -0.0107006160
