10   
Scan Cycle 1/88 ; Dihedral 3-1-2-10 = 0.00, Angle 1-3-2 = 100.00 ; Iteration 21 Energy -134.51120132
C       -0.3953953970   -0.0657229269   -1.0758514171
C        0.8552597382    0.2112540009    0.7367697834
N       -0.5393317058    0.1786636354    0.3444468599
H        0.1372363168   -1.0192250629   -1.2723300572
H        0.1748857671    0.7462266190   -1.5729173682
H       -1.3760148748   -0.1316946355   -1.5856995641
H        1.3645820128   -0.7491334197    0.5131507319
H        0.9742560453    0.3959242939    1.8219492432
H        1.4085246294    1.0151250273    0.2083113320
H       -1.3582025320    0.2938824684    0.9062704564
10   
Scan Cycle 2/88 ; Dihedral 3-1-2-10 = 0.00, Angle 1-3-2 = 105.00 ; Iteration 4 Energy -134.51971920
C       -0.4152203110   -0.0694512053   -1.0985978876
C        0.8720172487    0.2158586307    0.7643258787
N       -0.4943823707    0.1729305283    0.3169875021
H        0.1024217777   -1.0271043092   -1.3221731778
H        0.1419977909    0.7369413478   -1.6223909609
H       -1.4194448010   -0.1252223153   -1.5582902081
H        1.4005710946   -0.7403569476    0.5608614169
H        0.9378482155    0.4011404794    1.8525452518
H        1.4438816371    1.0231564430    0.2580923647
H       -1.3238902819    0.2874073483    0.8727398203
10   
Scan Cycle 3/88 ; Dihedral 3-1-2-10 = 0.00, Angle 1-3-2 = 110.00 ; Iteration 4 Energy -134.52518051
C       -0.4345595193   -0.0736069543   -1.1247116641
C        0.8896209099    0.2202545736    0.7916106538
N       -0.4509424447    0.1669449727    0.2879183392
H        0.0640900546   -1.0355818489   -1.3758191965
H        0.1047622480    0.7279482977   -1.6758820913
H       -1.4609000020   -0.1190857696   -1.5308806091
H        1.4375729130   -0.7313366035    0.6144927629
H        0.8967034688    0.4063950749    1.8805174386
H        1.4805394876    1.0318731130    0.3128705253
H       -1.2810871160    0.2814951443    0.8439838411
10   
Scan Cycle 4/88 ; Dihedral 3-1-2-10 = 0.00, Angle 1-3-2 = 115.00 ; Iteration 4 Energy -134.52818037
C       -0.4526589041   -0.0777146558   -1.1508812639
C        0.9077159627    0.2243627103    0.8177830763
N       -0.4066377653    0.1608324759    0.2582412748
H        0.0235554950   -1.0439236614   -1.4300802396
H        0.0648278107    0.7192148598   -1.7300444677
H       -1.4989757461   -0.1127787308   -1.5007992617
H        1.4741685457   -0.7221427211    0.6708872093
H        0.8542525987    0.4111956656    1.9043768862
H        1.5169370702    1.0407869804    0.3699072599
H       -1.2373850674    0.2754670771    0.8147095262
10   
Scan Cycle 5/88 ; Dihedral 3-1-2-10 = 0.00, Angle 1-3-2 = 120.00 ; Iteration 4 Energy -134.52911823
C       -0.4696860987   -0.0817290566   -1.1766044938
C        0.9257749888    0.2282345570    0.8428151603
N       -0.3614959716    0.1546037277    0.2280034441
H       -0.0184099903   -1.0518695447   -1.4833244540
H        0.0231954506    0.7107620462   -1.7831874573
H       -1.5330976230   -0.1063419233   -1.4687317996
H        1.5091661174   -0.7127745073    0.7284728094
H        0.8113979734    0.4153793458    1.9238715649
H        1.5518121994    1.0497117279    0.4279025610
H       -1.1928570460    0.2693236272    0.7848826649
10   
Scan Cycle 6/88 ; Dihedral 3-1-2-10 = 0.00, Angle 1-3-2 = 125.00 ; Iteration 3 Energy -134.52826517
C       -0.4858242604   -0.0855910313   -1.2014652085
C        0.9433404510    0.2318994977    0.8667198395
N       -0.3156381944    0.1482759062    0.1972860176
H       -0.0610454015   -1.0592003119   -1.5343207149
H       -0.0192969407    0.7026722543   -1.8340402329
H       -1.5630240021   -0.0998801796   -1.4354330170
H        1.5416932332   -0.7033097206    0.7859999307
H        0.7689364589    0.4189059574    1.9390613450
H        1.5842764462    1.0584462288    0.4857125264
H       -1.1476177901    0.2630813988    0.7545795142
10   
Scan Cycle 7/88 ; Dihedral 3-1-2-10 = 0.00, Angle 1-3-2 = 130.00 ; Iteration 3 Energy -134.52580023
C       -0.5011710735   -0.0892539607   -1.2250887447
C        0.9600262627    0.2353776246    0.8894464365
N       -0.2691553949    0.1418617409    0.1661498649
H       -0.1038090596   -1.0658596392   -1.5822050528
H       -0.0619748224    0.6950312319   -1.8817473947
H       -1.5887310262   -0.0934379092   -1.4015133530
H        1.5711976447   -0.6938509356    0.8425306841
H        0.7274419984    0.4217367140    1.9501560642
H        1.6137274858    1.0669426373    0.5425147414
H       -1.1017520152    0.2567524960    0.7238567540
10   
Scan Cycle 8/88 ; Dihedral 3-1-2-10 = 0.00, Angle 1-3-2 = 135.00 ; Iteration 3 Energy -134.52184473
C       -0.5158332340   -0.0926860207   -1.2472862736
C        0.9756153918    0.2386818021    0.9110231351
N       -0.2221610840    0.1353769768    0.1346711995
H       -0.1462255323   -1.0717952542   -1.6265172603
H       -0.1043449570    0.6879028572   -1.9258487238
H       -1.6104348741   -0.0870722239   -1.3673823705
H        1.5974260369   -0.6844952350    0.8974439718
H        0.6872207266    0.4239160294    1.9575048904
H        1.6399078800    1.0751187789    0.5977029850
H       -1.0553703539    0.2503522894    0.6927884464
10   
Scan Cycle 9/88 ; Dihedral 3-1-2-10 = 0.00, Angle 1-3-2 = 140.00 ; Iteration 3 Energy -134.51648918
C       -0.5298774219   -0.0958583587   -1.2678869603
C        0.9899222685    0.2418179298    0.9314478019
N       -0.1747473220    0.1288343117    0.1029115786
H       -0.1879533308   -1.0770027274   -1.6670332652
H       -0.1460545598    0.6813315716   -1.9661249749
H       -1.6284266081   -0.0808260012   -1.3333584409
H        1.6202978181   -0.6753245325    0.9503382064
H        0.6484658591    0.4255002742    1.9614920928
H        1.6627361313    1.0829343173    0.6508791095
H       -1.0085628342    0.2438932153    0.6614348521
10   
Scan Cycle 10/88 ; Dihedral 3-1-2-10 = 0.00, Angle 1-3-2 = 145.00 ; Iteration 3 Energy -134.50981220
C       -0.5433309562   -0.0987495418   -1.2867632382
C        1.0028164020    0.2447863522    0.9506987944
N       -0.1269785529    0.1222426323    0.0709140943
H       -0.2287479135   -1.0815061473   -1.7036806153
H       -0.1868521919    0.6753471833   -2.0025114370
H       -1.6430343488   -0.0747228669   -1.2996416087
H        1.6398395658   -0.6664070665    1.0009623471
H        0.6112454555    0.4265490890    1.9624918376
H        1.6822390922    1.0903757646    0.7017887115
H       -0.9613965521    0.2373846011    0.6298411143
10   
Scan Cycle 11/88 ; Dihedral 3-1-2-10 = 0.00, Angle 1-3-2 = 150.00 ; Iteration 4 Energy -134.50189346
C       -0.5563341784   -0.1013281683   -1.3037451343
C        1.0143044164    0.2475569666    0.9685951394
N       -0.0788643581    0.1156133529    0.0387439151
H       -0.2684737313   -1.0853371160   -1.7361897509
H       -0.2265925881    0.6700567941   -2.0347621466
H       -1.6547165669   -0.0687241217   -1.2660854298
H        1.6561461514   -0.6578922425    1.0488412146
H        0.5757206217    0.4270986209    1.9607589002
H        1.6985128241    1.0974290044    0.7499400233
H       -0.9139025908    0.2308269095    0.5980032690
10   
Scan Cycle 12/88 ; Dihedral 3-1-2-10 = 10.00, Angle 1-3-2 = 100.00 ; Iteration 13 Energy -134.51543537
C       -0.4120555421   -0.0485692447   -1.0684487367
C        0.8684268772    0.2263537177    0.7256745366
N       -0.5288208500    0.2687133574    0.3415604762
H        0.0711736488   -1.0337866736   -1.2551904202
H        0.1921078989    0.7234945580   -1.5792823400
H       -1.3997536136   -0.0682124803   -1.5681393062
H        1.3450503604   -0.7601336696    0.5290201123
H        1.0056501743    0.4477054653    1.8016779204
H        1.4361325593    0.9910849369    0.1645244313
H       -1.3321115132    0.1286500329    0.9327033263
10   
Scan Cycle 13/88 ; Dihedral 3-1-2-10 = 10.00, Angle 1-3-2 = 105.00 ; Iteration 4 Energy -134.52318133
C       -0.4336032619   -0.0521499509   -1.0943555681
C        0.8852285241    0.2308968970    0.7541771819
N       -0.4880713365    0.2522931690    0.3142950463
H        0.0272795695   -1.0434651489   -1.3110843573
H        0.1651953413    0.7135776473   -1.6237982356
H       -1.4422746728   -0.0493638264   -1.5472618870
H        1.3829960231   -0.7525928632    0.5896304936
H        0.9680009710    0.4683399280    1.8308956434
H        1.4700865028    0.9933543789    0.2048141565
H       -1.2890376605    0.1144097692    0.9067875263
10   
Scan Cycle 14/88 ; Dihedral 3-1-2-10 = 10.00, Angle 1-3-2 = 110.00 ; Iteration 7 Energy -134.52801923
C       -0.4535196753   -0.0556570440   -1.1198260491
C        0.9027578214    0.2355129277    0.7811649129
N       -0.4461830208    0.2317196255    0.2875409465
H       -0.0263386324   -1.0546144648   -1.3723900249
H        0.1413564618    0.7023572339   -1.6664342332
H       -1.4811788439   -0.0211987986   -1.5236374913
H        1.4237819444   -0.7433055801    0.6601810969
H        0.9288687704    0.4962366450    1.8543264895
H        1.5033066277    0.9947178402    0.2424703100
H       -1.2470514533    0.0895316152    0.8807040428
10   
Scan Cycle 15/88 ; Dihedral 3-1-2-10 = 10.00, Angle 1-3-2 = 115.00 ; Iteration 7 Energy -134.53050393
C       -0.4724690111   -0.0588950877   -1.1452361641
C        0.9205183804    0.2401644885    0.8072055865
N       -0.4038100657    0.2073126065    0.2610473737
H       -0.0881199562   -1.0652553316   -1.4366344824
H        0.1202497589    0.6906096789   -1.7067208515
H       -1.5158188010    0.0144998947   -1.4984609783
H        1.4643932917   -0.7319469155    0.7393995042
H        0.8887026773    0.5307232697    1.8717697232
H        1.5353980830    0.9944284252    0.2767837935
H       -1.2032443574    0.0536589714    0.8549464951
10   
Scan Cycle 16/88 ; Dihedral 3-1-2-10 = 10.00, Angle 1-3-2 = 120.00 ; Iteration 7 Energy -134.53102914
C       -0.4906967155   -0.0615414401   -1.1700119364
C        0.9378461224    0.2451512097    0.8322650064
N       -0.3607859137    0.1799670625    0.2345399941
H       -0.1561706383   -1.0740183843   -1.5001748875
H        0.1017326426    0.6782728483   -1.7448301546
H       -1.5455312396    0.0558779966   -1.4719228737
H        1.5019615187   -0.7180354904    0.8239002862
H        0.8481174230    0.5697685774    1.8830673628
H        1.5664265037    0.9927262867    0.3081163398
H       -1.1570997034    0.0071313337    0.8291508628
10   
Scan Cycle 17/88 ; Dihedral 3-1-2-10 = 10.00, Angle 1-3-2 = 125.00 ; Iteration 7 Energy -134.52985146
C       -0.5082948494   -0.0635117087   -1.1936618709
C        0.9542403464    0.2504786525    0.8562596724
N       -0.3168081091    0.1532036926    0.2072629554
H       -0.2251223717   -1.0800824583   -1.5578734850
H        0.0824769395    0.6658004480   -1.7833850181
H       -1.5706609643    0.0966558756   -1.4437993905
H        1.5334045396   -0.7025458589    0.9069161195
H        0.8076797639    0.6072596171    1.8897350472
H        1.5976398679    0.9910896180    0.3403009312
H       -1.1087551629   -0.0430478779    0.8023450388
10   
Scan Cycle 18/88 ; Dihedral 3-1-2-10 = 10.00, Angle 1-3-2 = 130.00 ; Iteration 8 Energy -134.52713516
C       -0.5251215875   -0.0648627224   -1.2159777082
C        0.9695631571    0.2560298078    0.8790051192
N       -0.2716996797    0.1301102173    0.1786172899
H       -0.2905720444   -1.0839676492   -1.6066183498
H        0.0595715455    0.6537197519   -1.8244656173
H       -1.5920432775    0.1319350354   -1.4138724690
H        1.5573747364   -0.6872335771    0.9835044739
H        0.7676049388    0.6385258444    1.8934622750
H        1.6299246431    0.9908575001    0.3765757798
H       -1.0588024317   -0.0898142082    0.7738692065
10   
Scan Cycle 19/88 ; Dihedral 3-1-2-10 = 10.00, Angle 1-3-2 = 135.00 ; Iteration 8 Energy -134.52300191
C       -0.5412972973   -0.0654731340   -1.2366907165
C        0.9835063638    0.2618856488    0.9005074516
N       -0.2257300639    0.1105450431    0.1488165819
H       -0.3522900518   -1.0863585861   -1.6465040645
H        0.0336704615    0.6420750536   -1.8667292004
H       -1.6100268144    0.1628045944   -1.3834767363
H        1.5741359689   -0.6727759222    1.0536168321
H        0.7288635864    0.6649389540    1.8947633482
H        1.6622430322    0.9917118303    0.4159137826
H       -1.0072751855   -0.1340534819    0.7438827213
10   
Scan Cycle 20/88 ; Dihedral 3-1-2-10 = 10.00, Angle 1-3-2 = 140.00 ; Iteration 8 Energy -134.51756166
C       -0.5569449636   -0.0649356371   -1.2556226912
C        0.9958047980    0.2684229131    0.9207453172
N       -0.1790439697    0.0934366323    0.1181285812
H       -0.4118161068   -1.0874505151   -1.6783480242
H        0.0064429269    0.6306240968   -1.9086840294
H       -1.6247142812    0.1922044896   -1.3531960470
H        1.5839596572   -0.6589791678    1.1189751802
H        0.6915453745    0.6894803367    1.8933243466
H        1.6938009005    0.9928814088    0.4563538881
H       -0.9532343358   -0.1803845573    0.7124234785
10   
Scan Cycle 21/88 ; Dihedral 3-1-2-10 = 10.00, Angle 1-3-2 = 145.00 ; Iteration 8 Energy -134.51092917
C       -0.5723588831   -0.0625461042   -1.2724371777
C        1.0059458676    0.2762987270    0.9397494435
N       -0.1317405092    0.0777964084    0.0867751632
H       -0.4710690003   -1.0869341678   -1.7021984977
H       -0.0204026625    0.6189819751   -1.9491515086
H       -1.6362150668    0.2235130067   -1.3237869865
H        1.5862030691   -0.6452601923    1.1813191278
H        0.6558362921    0.7155915309    1.8888025417
H        1.7241293186    0.9935140400    0.4960227975
H       -0.8945284257   -0.2356552238    0.6790050969
10   
Scan Cycle 22/88 ; Dihedral 3-1-2-10 = 10.00, Angle 1-3-2 = 150.00 ; Iteration 9 Energy -134.50323693
C       -0.5879924728   -0.0575602753   -1.2868156211
C        1.0134186643    0.2861568184    0.9574822677
N       -0.0839628707    0.0643268066    0.0545264256
H       -0.5297746522   -1.0843671654   -1.7169438472
H       -0.0476055636    0.6075614714   -1.9882035263
H       -1.6455633369    0.2571760430   -1.2956183361
H        1.5783989329   -0.6319991571    1.2410998261
H        0.6221555502    0.7457853850    1.8812065655
H        1.7541922113    0.9923185249    0.5344825827
H       -0.8274664626   -0.3040984516    0.6428836630
10   
Scan Cycle 23/88 ; Dihedral 3-1-2-10 = 20.00, Angle 1-3-2 = 100.00 ; Iteration 13 Energy -134.52424920
C       -0.4347689356   -0.0256919227   -1.0720615130
C        0.8700878290    0.2553607157    0.7227056158
N       -0.5418882195    0.2992468472    0.3446388178
H        0.0768945914   -0.9934361595   -1.2755699750
H        0.1363519819    0.7724955366   -1.5738746810
H       -1.4298608868   -0.0658936964   -1.5543406468
H        1.3618754752   -0.7194100108    0.5050115215
H        1.0028140551    0.4643449240    1.8010968757
H        1.4145535406    1.0397451508    0.1712195744
H       -1.2102594315   -0.1514613848    0.9552744105
10   
Scan Cycle 24/88 ; Dihedral 3-1-2-10 = 20.00, Angle 1-3-2 = 105.00 ; Iteration 7 Energy -134.53052829
C       -0.4556368067   -0.0301018250   -1.0926837404
C        0.8912198723    0.2607357415    0.7522518510
N       -0.4952568588    0.2829062448    0.3237236459
H        0.0287970628   -1.0068744538   -1.3253912862
H        0.1119983302    0.7575306018   -1.6180496062
H       -1.4732608155   -0.0459506384   -1.5236378446
H        1.4067784446   -0.7090837346    0.5610767941
H        0.9757172337    0.4817789280    1.8318468787
H        1.4466448635    1.0463570026    0.2110157758
H       -1.1912013262   -0.1619978670    0.9039475319
10   
Scan Cycle 25/88 ; Dihedral 3-1-2-10 = 20.00, Angle 1-3-2 = 110.00 ; Iteration 4 Energy -134.53389632
C       -0.4753452408   -0.0341702976   -1.1171649272
C        0.9088167870    0.2646661624    0.7786446061
N       -0.4525490315    0.2629663418    0.2960981415
H       -0.0218858039   -1.0181964339   -1.3839826768
H        0.0864203556    0.7465053161   -1.6611451674
H       -1.5116619887   -0.0231837159   -1.4985328075
H        1.4476835516   -0.7006992599    0.6276148042
H        0.9373914294    0.5045826952    1.8562034872
H        1.4805124627    1.0481665772    0.2492533916
H       -1.1535825214   -0.1753373854    0.8771111482
10   
Scan Cycle 26/88 ; Dihedral 3-1-2-10 = 20.00, Angle 1-3-2 = 115.00 ; Iteration 7 Energy -134.53507518
C       -0.4942292921   -0.0379317896   -1.1416943239
C        0.9264066641    0.2685763672    0.8041388624
N       -0.4097972151    0.2396341303    0.2685944758
H       -0.0796842905   -1.0291346158   -1.4451448385
H        0.0626284630    0.7354838383   -1.7022850912
H       -1.5463366563    0.0057618213   -1.4722194606
H        1.4880378020   -0.6908952725    0.7021718831
H        0.8976330705    0.5330744051    1.8752594013
H        1.5134547147    1.0484938134    0.2848821781
H       -1.1123132604   -0.1977626978    0.8503969133
10   
Scan Cycle 27/88 ; Dihedral 3-1-2-10 = 20.00, Angle 1-3-2 = 120.00 ; Iteration 7 Energy -134.53443937
C       -0.5122124038   -0.0416609927   -1.1656475868
C        0.9437324780    0.2724684479    0.8285464770
N       -0.3662704189    0.2165295513    0.2404555652
H       -0.1397334759   -1.0388183829   -1.5032316505
H        0.0379588016    0.7241725462   -1.7439586845
H       -1.5769926299    0.0347664984   -1.4439161922
H        1.5249639644   -0.6796490944    0.7768871349
H        0.8571433833    0.5599454623    1.8900976507
H        1.5463926558    1.0496276982    0.3221303160
H       -1.0691823545   -0.2220817343    0.8227369702
10   
Scan Cycle 28/88 ; Dihedral 3-1-2-10 = 20.00, Angle 1-3-2 = 125.00 ; Iteration 7 Energy -134.53224074
C       -0.5292920388   -0.0451173332   -1.1886527316
C        0.9604141103    0.2762959457    0.8517839037
N       -0.3218474479    0.1951420460    0.2113917540
H       -0.1988348235   -1.0467554453   -1.5557380477
H        0.0110178225    0.7131611709   -1.7865567646
H       -1.6036410851    0.0610487326   -1.4138673307
H        1.5566931138   -0.6679895421    0.8487922651
H        0.8166857731    0.5832493295    1.9012314602
H        1.5794417220    1.0515582380    0.3616986515
H       -1.0248371464   -0.2452931419    0.7940168401
10   
Scan Cycle 29/88 ; Dihedral 3-1-2-10 = 20.00, Angle 1-3-2 = 130.00 ; Iteration 4 Energy -134.52864821
C       -0.5451173077   -0.0488366836   -1.2106494487
C        0.9765852054    0.2794800105    0.8736123181
N       -0.2761522296    0.1798381236    0.1804408392
H       -0.2506392024   -1.0534730091   -1.5994731358
H       -0.0225351054    0.7028644422   -1.8326527134
H       -1.6268955854    0.0773323632   -1.3818334277
H        1.5823245489   -0.6579997139    0.9111203018
H        0.7769147700    0.5959694026    1.9106432172
H        1.6135761987    1.0558654990    0.4083135210
H       -0.9822612925   -0.2557404346    0.7645785282
10   
Scan Cycle 30/88 ; Dihedral 3-1-2-10 = 20.00, Angle 1-3-2 = 135.00 ; Iteration 8 Energy -134.52379020
C       -0.5610004224   -0.0508710220   -1.2311877729
C        0.9907442350    0.2838276078    0.8943476133
N       -0.2309236952    0.1598755439    0.1497912593
H       -0.3079866911   -1.0582101752   -1.6412833500
H       -0.0513084792    0.6932256958   -1.8729286023
H       -1.6460929806    0.1017251717   -1.3508767962
H        1.6026114519   -0.6464232315    0.9785132573
H        0.7374729747    0.6173244810    1.9139684142
H        1.6444816653    1.0575668881    0.4479275767
H       -0.9321980585   -0.2827409596    0.7358284006
10   
Scan Cycle 31/88 ; Dihedral 3-1-2-10 = 20.00, Angle 1-3-2 = 140.00 ; Iteration 4 Energy -134.51776938
C       -0.5752730126   -0.0537957180   -1.2502157489
C        1.0046392619    0.2871000238    0.9134647871
N       -0.1839873466    0.1487480948    0.1172704975
H       -0.3549317632   -1.0635830594   -1.6724208195
H       -0.0878876271    0.6832809601   -1.9171227243
H       -1.6624373961    0.1134200176   -1.3179186917
H        1.6182336177   -0.6380887399    1.0318041674
H        0.7000434580    0.6241102662    1.9175113133
H        1.6757734370    1.0627645312    0.4968054921
H       -0.8883726288   -0.2886563763    0.7049217270
10   
Scan Cycle 32/88 ; Dihedral 3-1-2-10 = 20.00, Angle 1-3-2 = 145.00 ; Iteration 8 Energy -134.51069286
C       -0.5901628628   -0.0534842971   -1.2665322699
C        1.0154271101    0.2928304023    0.9319663070
N       -0.1376823602    0.1304543879    0.0863708820
H       -0.4104012489   -1.0656659837   -1.7011030925
H       -0.1160771123    0.6742947369   -1.9529675055
H       -1.6751359544    0.1391320864   -1.2872312789
H        1.6269342495   -0.6267020731    1.0933469037
H        0.6640617356    0.6463563133    1.9149312164
H        1.7027829095    1.0640853492    0.5340410747
H       -0.8339464660   -0.3260009220    0.6712777631
10   
Scan Cycle 33/88 ; Dihedral 3-1-2-10 = 20.00, Angle 1-3-2 = 150.00 ; Iteration 8 Energy -134.50266352
C       -0.6042892501   -0.0525962284   -1.2809349177
C        1.0245874258    0.2987967584    0.9489804857
N       -0.0907564495    0.1170731139    0.0542777570
H       -0.4612940594   -1.0678263640   -1.7206588957
H       -0.1464519397    0.6645629598   -1.9892019546
H       -1.6854265948    0.1613458683   -1.2568771268
H        1.6296399302   -0.6172292417    1.1467700619
H        0.6295487779    0.6634702433    1.9113342743
H        1.7288335292    1.0665012619    0.5744724961
H       -0.7785913697   -0.3587983716    0.6359378197
10   
Scan Cycle 34/88 ; Dihedral 3-1-2-10 = 30.00, Angle 1-3-2 = 100.00 ; Iteration 15 Energy -134.52963742
C       -0.4570473060   -0.0080329671   -1.0733049703
C        0.8671753937    0.2781368044    0.7315758429
N       -0.5559580087    0.3664160281    0.3427626259
H        0.0574835106   -0.9775069068   -1.2502413503
H        0.1034033943    0.7790890711   -1.6026184343
H       -1.4594032242   -0.0646268250   -1.5369588130
H        1.3281072046   -0.7087097262    0.5105846067
H        0.9879518485    0.4790500397    1.8121027698
H        1.4366875829    1.0506877648    0.1896823727
H       -1.0626003958   -0.3192032830    0.9005153499
10   
Scan Cycle 35/88 ; Dihedral 3-1-2-10 = 30.00, Angle 1-3-2 = 105.00 ; Iteration 7 Energy -134.53492331
C       -0.4750852377   -0.0143219098   -1.0912251106
C        0.8894489891    0.2840297869    0.7592247251
N       -0.5032724834    0.3527215378    0.3228712188
H        0.0143912552   -0.9939327501   -1.2921508463
H        0.0779675018    0.7593881182   -1.6503382766
H       -1.5001685156   -0.0501926912   -1.5012555468
H        1.3779798613   -0.6948990157    0.5527235280
H        0.9649624380    0.4855757091    1.8426841264
H        1.4665995890    1.0654328253    0.2363435133
H       -1.0670233977   -0.3185016104    0.8452226688
10   
Scan Cycle 36/88 ; Dihedral 3-1-2-10 = 30.00, Angle 1-3-2 = 110.00 ; Iteration 7 Energy -134.53714385
C       -0.4936984409   -0.0191134619   -1.1161562610
C        0.9076122933    0.2866577630    0.7846337689
N       -0.4593802447    0.3348048536    0.2931379262
H       -0.0262486589   -1.0039014126   -1.3487143953
H        0.0449939684    0.7505225586   -1.6963165065
H       -1.5371244121   -0.0375082472   -1.4756107181
H        1.4186522412   -0.6885907792    0.6110587854
H        0.9273687200    0.5001393273    1.8673701769
H        1.5019188595    1.0685082917    0.2800293986
H       -1.0382943260   -0.3162188933    0.8246678248
10   
Scan Cycle 37/88 ; Dihedral 3-1-2-10 = 30.00, Angle 1-3-2 = 115.00 ; Iteration 4 Energy -134.53725682
C       -0.5116078833   -0.0240332392   -1.1406992848
C        0.9259096807    0.2896255490    0.8092090767
N       -0.4156622388    0.3131177365    0.2644007663
H       -0.0755973391   -1.0154273460   -1.4076094237
H        0.0153848116    0.7404850210   -1.7393266954
H       -1.5707134186   -0.0172528349   -1.4491281455
H        1.4605361966   -0.6802396868    0.6760008124
H        0.8891139229    0.5194197937    1.8875037475
H        1.5347569844    1.0720396659    0.3216664595
H       -1.0063207163   -0.3224346592    0.8020826871
10   
Scan Cycle 38/88 ; Dihedral 3-1-2-10 = 30.00, Angle 1-3-2 = 120.00 ; Iteration 4 Energy -134.53564250
C       -0.5284686009   -0.0290728568   -1.1647917704
C        0.9441238668    0.2922341356    0.8326958151
N       -0.3711602054    0.2920900030    0.2349758682
H       -0.1261340955   -1.0259221968   -1.4642797957
H       -0.0160520212    0.7307092572   -1.7826937816
H       -1.6006212823    0.0017879088   -1.4203937021
H        1.4998196953   -0.6711487992    0.7412062560
H        0.8500505383    0.5364831442    1.9038115286
H        1.5673236854    1.0762033397    0.3650883547
H       -0.9730815806   -0.3280639355    0.7784812272
10   
Scan Cycle 39/88 ; Dihedral 3-1-2-10 = 30.00, Angle 1-3-2 = 125.00 ; Iteration 4 Energy -134.53257007
C       -0.5444405259   -0.0339149885   -1.1879265832
C        0.9616815935    0.2947060147    0.8550431370
N       -0.3260661200    0.2712090849    0.2050904201
H       -0.1774447571   -1.0352189987   -1.5174750275
H       -0.0481308497    0.7212566477   -1.8249892282
H       -1.6265828122    0.0203745274   -1.3902912776
H        1.5354261698   -0.6614856395    0.8059252703
H        0.8109815664    0.5522182010    1.9161310879
H        1.5986329394    1.0805711401    0.4087633794
H       -0.9382572044   -0.3344159891    0.7538288218
10   
Scan Cycle 40/88 ; Dihedral 3-1-2-10 = 30.00, Angle 1-3-2 = 130.00 ; Iteration 4 Energy -134.52822816
C       -0.5595857459   -0.0383956237   -1.2097488607
C        0.9782058015    0.2971346255    0.8761790813
N       -0.2804152203    0.2508010295    0.1747184233
H       -0.2284421749   -1.0432140091   -1.5660125552
H       -0.0806571938    0.7121781786   -1.8657724912
H       -1.6486282649    0.0380731720   -1.3593353400
H        1.5665586616   -0.6515624321    0.8687994028
H        0.7724478292    0.5663229013    1.9247201466
H        1.6283251717    1.0850638469    0.4523712163
H       -0.9020088642   -0.3411016890    0.7281809766
10   
Scan Cycle 41/88 ; Dihedral 3-1-2-10 = 30.00, Angle 1-3-2 = 135.00 ; Iteration 3 Energy -134.52275524
C       -0.5739736900   -0.0424134515   -1.2301432468
C        0.9935513707    0.2996042615    0.8961165790
N       -0.2342573770    0.2311530364    0.1438503430
H       -0.2784240814   -1.0499800916   -1.6093035024
H       -0.1135315082    0.7034856110   -1.9048238919
H       -1.6669922364    0.0546840450   -1.3279060171
H        1.5928898036   -0.6416784926    0.9290252561
H        0.7347648756    0.5787200065    1.9299438644
H        1.6562242267    1.0896298888    0.4957536161
H       -0.8644513837   -0.3479048135    0.7015869995
10   
Scan Cycle 42/88 ; Dihedral 3-1-2-10 = 30.00, Angle 1-3-2 = 140.00 ; Iteration 3 Energy -134.51626323
C       -0.5875859455   -0.0458763225   -1.2486938663
C        1.0073191850    0.3021152253    0.9147056118
N       -0.1876527039    0.2125667066    0.1124820733
H       -0.3265584465   -1.0556303484   -1.6467968101
H       -0.1466359410    0.6951675972   -1.9418442673
H       -1.6819289049    0.0700243979   -1.2964301715
H        1.6141736973   -0.6321826394    0.9856952153
H        0.6982836862    0.5893603277    1.9321954145
H        1.6820874107    1.0941771626    0.5387184957
H       -0.8257020374   -0.3544221071    0.6740683045
10   
Scan Cycle 43/88 ; Dihedral 3-1-2-10 = 30.00, Angle 1-3-2 = 145.00 ; Iteration 3 Energy -134.50885383
C       -0.6004768063   -0.0486929107   -1.2654109351
C        1.0194884784    0.3047664336    0.9319812265
N       -0.1406893809    0.1950879603    0.0806712250
H       -0.3727674824   -1.0603238676   -1.6785029752
H       -0.1797117680    0.6871748369   -1.9766930596
H       -1.6937994959    0.0845123316   -1.2650658954
H        1.6304677166   -0.6232387912    1.0387719333
H        0.6629783235    0.5987354842    1.9317716367
H        1.7058700280    1.0985897840    0.5809941220
H       -0.7855596130   -0.3613112611    0.6455827218
10   
Scan Cycle 44/88 ; Dihedral 3-1-2-10 = 30.00, Angle 1-3-2 = 150.00 ; Iteration 8 Energy -134.50063578
C       -0.6141980351   -0.0488519951   -1.2798393057
C        1.0283671756    0.3093861218    0.9484676952
N       -0.0955656146    0.1733810196    0.0497189926
H       -0.4230592120   -1.0620554954   -1.7063944050
H       -0.2074935911    0.6813002070   -2.0052004819
H       -1.7039328226    0.1068613894   -1.2365797988
H        1.6380725286   -0.6132846441    1.0960502967
H        0.6289323363    0.6192038632    1.9272648790
H        1.7271577195    1.0999605085    0.6146681834
H       -0.7324804844   -0.3906009749    0.6159439444
10   
Scan Cycle 45/88 ; Dihedral 3-1-2-10 = 40.00, Angle 1-3-2 = 100.00 ; Iteration 11 Energy -134.52375792
C       -0.4780924850    0.0060240036   -1.0725039056
C        0.8616738161    0.2952399114    0.7479021211
N       -0.5661793165    0.4512587930    0.3368106636
H        0.0300146553   -0.9717724199   -1.2009901767
H        0.0764950052    0.7595026024   -1.6569591860
H       -1.4895348304   -0.0699264499   -1.5114165335
H        1.2748832979   -0.7090968389    0.5229472073
H        0.9616768947    0.4787912461    1.8328574904
H        1.4831817776    1.0451925654    0.2292134493
H       -0.9083188149   -0.4099134132    0.7962388701
10   
Scan Cycle 46/88 ; Dihedral 3-1-2-10 = 40.00, Angle 1-3-2 = 105.00 ; Iteration 7 Energy -134.52972070
C       -0.4907164276   -0.0009145666   -1.0888338187
C        0.8819062277    0.3010400165    0.7699874973
N       -0.5058665869    0.4407543371    0.3125995126
H       -0.0005653541   -0.9872063976   -1.2385720134
H        0.0481320349    0.7394929231   -1.7060800223
H       -1.5237702077   -0.0621314773   -1.4736755093
H        1.3250277416   -0.6944607482    0.5505095731
H        0.9377927239    0.4755325844    1.8588177145
H        1.5116519956    1.0648071439    0.2806059519
H       -0.9377921474   -0.4016138153    0.7587411142
10   
Scan Cycle 47/88 ; Dihedral 3-1-2-10 = 40.00, Angle 1-3-2 = 110.00 ; Iteration 7 Energy -134.53231385
C       -0.5080700193   -0.0068318401   -1.1159117911