135  
Iteration 0 Energy -4243.25499756
C       10.8986420000   16.9041560000    2.4260030000
C       11.7957150000   16.1819690000    1.6041700000
C       13.1035320000   16.4946740000    2.0340750000
C       13.0199830000   17.3998200000    3.1065590000
C       11.6638700000   17.6576600000    3.3617680000
C        9.6251140000   16.4626500000    2.6994410000
C        9.1981900000   15.3608850000    1.9019130000
H        8.2825240000   15.1054010000    1.9292570000
C       10.0616970000   14.6478820000    1.0891950000
H        9.7265320000   13.9162770000    0.5833340000
C       11.4525810000   14.9890780000    0.9950110000
C       12.5720500000   14.1762360000    0.6213120000
H       12.4262010000   13.4264990000    0.0562070000
C       13.8615160000   14.4425520000    1.0542550000
H       14.5656510000   13.8550550000    0.8111990000
C       14.1524910000   15.6003580000    1.8700120000
C       15.2453980000   15.8169910000    2.7678000000
H       16.0458810000   15.3243880000    2.6341190000
C       15.1869610000   16.7169570000    3.8266130000
H       15.9468770000   16.8290410000    4.3856420000
C       13.9996390000   17.4803510000    4.0894170000
C       13.5724730000   18.0751480000    5.3153310000
H       14.2155160000   18.2889550000    5.9806970000
C       12.2223970000   18.3482930000    5.5507910000
H       11.9746460000   18.7646040000    6.3680670000
C       11.2021740000   18.0271120000    4.6104690000
C        9.7861760000   17.7657410000    4.8611200000
C        9.0050110000   16.9941050000    3.9132020000
C        7.6602480000   16.6696280000    4.2352510000
H        7.1355270000   16.1555970000    3.6321680000
C        7.1229710000   17.0948870000    5.4125530000
C        7.8908550000   17.8498030000    6.3376850000
C        9.1962580000   18.1627430000    6.0779190000
H        9.7048000000   18.6468690000    6.7159410000
C        5.7579240000   16.8791960000    6.0520940000
H        5.0081500000   16.6171180000    5.4444540000
C        5.6210080000   18.2538700000    6.8025300000
H        5.5901000000   19.0283310000    6.1872940000
H        4.8536070000   18.2795360000    7.4268800000
C        6.9860550000   18.1085850000    7.5271410000
H        7.2514340000   18.8517280000    8.1408570000
C        6.7774230000   16.7303790000    8.1636430000
C        6.0150920000   15.9794650000    7.2597790000
C        5.6920020000   14.6730780000    7.5210640000
H        5.2085730000   14.1611660000    6.8815230000
C        6.0819800000   14.0907600000    8.7515350000
C        6.8684580000   14.8633370000    9.6888200000
C        7.2140060000   16.1984520000    9.3439840000
H        7.7464540000   16.7183700000    9.9318760000
C        6.0447940000   12.2861180000   10.3405140000
C        6.8276490000   13.0502180000   11.2519740000
C        7.4559620000   12.1613190000   12.1421660000
C        7.0556000000   10.8565800000   11.8125220000
C        6.1935410000   10.9258080000   10.6807920000
C        5.7569580000   12.6934810000    9.0644700000
C        5.4191370000   11.6322180000    8.1545290000
H        5.0878360000   11.8512050000    7.2916800000
C        5.5652280000   10.2933360000    8.5024030000
H        5.3220650000    9.6236590000    7.8734950000
C        6.0754610000    9.8942140000    9.7860420000
C        6.7298530000    8.6676510000   10.1612600000
H        6.5897980000    7.8882450000    9.6371700000
C        7.5566560000    8.5998350000   11.2656460000
H        7.9492910000    7.7658010000   11.4935110000
C        7.8435260000    9.7548160000   12.0874790000
C        8.9958350000   10.0100650000   12.9184260000
H        9.5092070000    9.2775180000   13.2374370000
C        9.3689110000   11.2919640000   13.2571860000
H       10.1177190000   11.4179400000   13.8268480000
C        8.6570490000   12.4504760000   12.7725930000
C        9.1175380000   13.7912420000   12.6039730000
H        9.8617570000   14.0952340000   13.1083140000
C        8.5008150000   14.6601270000   11.7183370000
H        8.8403270000   15.5433750000   11.6317490000
C        7.3642020000   14.2716010000   10.9238480000
C       11.6510720000   15.2106560000    7.6836080000
C       12.8536080000   14.9337430000    8.3550500000
C       14.0484160000   14.6281030000    7.6562640000
C       14.0488990000   14.6172710000    6.2738830000
C       12.8391190000   14.9076060000    5.5690210000
C       11.6679750000   15.1823990000    6.2040040000
C       10.4050720000   14.6669550000    8.1165510000
C       10.3591920000   13.8607060000    9.2254940000
C       11.6172660000   13.5553010000    9.9804870000
C       12.8270460000   14.0693330000    9.5429860000
C       13.9817700000   13.2357690000    9.5596960000
C       14.7646250000   13.5701360000    8.3641650000
C       15.4151530000   12.5788070000    7.7063940000
C       15.4397840000   12.5905810000    6.2298290000
C       14.7846670000   13.5691940000    5.5659820000
C       13.9812870000   13.2216400000    4.3704510000
C       12.8004840000   14.0323640000    4.3658930000
C       11.6172660000   13.5447050000    3.9390260000
C       10.3591920000   13.8409270000    4.6833850000
C       10.4171450000   14.6507080000    5.7786560000
C        9.6212500000   14.3231690000    6.9468440000
C       13.8974960000   11.8862900000    9.9835250000
C       14.6081510000   10.8669410000    9.2482810000
C       15.3622710000   11.2342740000    8.1256660000
C       12.6324190000   11.3567180000   10.4286220000
C       15.3786910000   11.2225000000    5.7968860000
C       13.9197110000   11.9067760000    3.9496600000
C       11.5093280000   12.1900460000    3.5000060000
C        9.5340780000   12.6565120000    4.6621180000
C        8.8354970000   13.1792560000    6.9468440000
C       12.4962280000    8.3363440000    7.6836080000
C       11.2936920000    8.6132570000    8.3550500000
C       10.0988840000    8.9188970000    7.6562640000
C       10.0984010000    8.9297290000    6.2738830000
C       11.3081810000    8.6393940000    5.5690210000
C       12.4793250000    8.3646010000    6.2040040000
C       13.7422280000    8.8800450000    8.1165510000
C       13.7881080000    9.6862940000    9.2254940000
C       12.5300340000    9.9916990000    9.9804870000
C       11.3202540000    9.4776670000    9.5429860000
C       10.1655300000   10.3112310000    9.5596960000
C        9.3826750000    9.9768640000    8.3641650000
C        8.7321470000   10.9681930000    7.7063940000
C        8.7075160000   10.9564190000    6.2298290000
C        9.3626330000    9.9778060000    5.5659820000
C       10.1660130000   10.3253600000    4.3704510000
C       11.3468160000    9.5146360000    4.3658930000
C       12.5300340000   10.0022950000    3.9390260000
C       13.7881080000    9.7060730000    4.6833850000
C       13.7301550000    8.8962920000    5.7786560000
C       14.5260500000    9.2238310000    6.9468440000
C       10.2498040000   11.6607100000    9.9835250000
C        9.5391490000   12.6800600000    9.2482810000
C        8.7850290000   12.3127260000    8.1256660000
C       11.5148810000   12.1902820000   10.4286220000
C        8.7686090000   12.3245000000    5.7968860000
C       10.2275890000   11.6402240000    3.9496600000
C       12.6379720000   11.3569540000    3.5000060000
C       14.6132220000   10.8904880000    4.6621180000
C       15.3118030000   10.3677440000    6.9468440000
135  
Iteration 1 Energy -4243.63025672
C       10.8735053754   16.8476441799    2.4548298451
C       11.7861549345   16.0973560723    1.6620310688
C       13.1100274214   16.4207373839    2.0750765119
C       13.0203457647   17.3748569695    3.1229945810
C       11.6474732063   17.6380212876    3.3660534608
C        9.5946233601   16.4095194841    2.7343853456
C        9.1573535840   15.2620809561    1.9761222206
H        8.1526178117   14.9458567413    2.0068159085
C       10.0457008838   14.5249573642    1.1955416080
H        9.6757495516   13.6848638929    0.6781316577
C       11.4462419971   14.8744642842    1.0955202148
C       12.5778443590   14.0381093996    0.7534976696
H       12.4342450272   13.1689920358    0.1746934185
C       13.8692504123   14.3383711743    1.1783361524
H       14.6402257459   13.6642249988    0.9332317241
C       14.1704651435   15.5295532187    1.9509572840
C       15.2823345109   15.7829806305    2.8410438907
H       16.1802938770   15.2407561146    2.7403770640
C       15.2026740031   16.7270248905    3.8637493650
H       16.0474002809   16.8601224179    4.4788491375
C       14.0009885032   17.4989664475    4.1047793660
C       13.5633991019   18.1404127364    5.3202766313
H       14.2624460415   18.4020268082    6.0636332454
C       12.2108485195   18.4099959311    5.5477382121
H       11.9482283788   18.8860100062    6.4501064819
C       11.1831744768   18.0492392588    4.6030484880
C        9.7586056384   17.7908157722    4.8567344778
C        8.9751070866   16.9897971140    3.9297943637
C        7.6274757473   16.6771867809    4.2533853304
H        7.0636305449   16.0887445272    3.5864731420
C        7.0826113302   17.1351475962    5.4281954261
C        7.8517846745   17.9096868211    6.3410357845
C        9.1647702321   18.2234210991    6.0713439326
H        9.7348615951   18.7768728153    6.7617713142
C        5.7075695618   16.9330782790    6.0707200071
H        4.9099132453   16.6402813541    5.4259977157
C        5.5691710225   18.3199180186    6.8092414946
H        5.5367321708   19.1451252459    6.1338128293
H        4.7427557773   18.3497567341    7.4831121111
C        6.9472395191   18.1857517650    7.5434923385
H        7.2347140331   18.9844915758    8.1895091894
C        6.7476952986   16.8052086711    8.1981860086
C        5.9746867715   16.0444572734    7.2891447374
C        5.6519575112   14.7316940254    7.5483601171
H        5.1136380123   14.1504549002    6.8544742025
C        6.0623248960   14.1467687292    8.7710996532
C        6.8571854843   14.9273129574    9.7059735122
C        7.1989662629   16.2707373064    9.3844360487
H        7.7943401813   16.8358673032   10.0431540696
C        6.0695356228   12.3058220478   10.3208424403
C        6.8608108925   13.0713151809   11.2382942798
C        7.5211244330   12.1555620313   12.0990882630
C        7.1361191921   10.8369241005   11.7395266707
C        6.2461028495   10.9303338823   10.6277826194
C        5.7504699363   12.7371864893    9.0510849539
C        5.4045301463   11.6925002412    8.1100502157
H        5.0275742714   11.9430752474    7.1589279864
C        5.5740544623   10.3431462086    8.4188908579
H        5.3101456321    9.6235827940    7.6955734852
C        6.1178659342    9.9182469296    9.6910594811
C        6.8006968000    8.6815436567   10.0208004705
H        6.6547965420    7.8321343660    9.4149380585
C        7.6604156791    8.5900699548   11.1101555890
H        8.1242150040    7.6664354675   11.3155671711
C        7.9452641593    9.7332803543   11.9616828487
C        9.1138258695    9.9886982392   12.7825943836
H        9.7110198353    9.1791591854   13.0955083484
C        9.4781633903   11.2779370175   13.1543263569
H       10.3290039910   11.4081581080   13.7619035615
C        8.7327850818   12.4444404305   12.7165422487
C        9.1740019988   13.8109668742   12.5769816984
H       10.0124333506   14.1484639792   13.1177831172
C        8.5269829643   14.7026563216   11.7217512273
H        8.9043576053   15.6828278972   11.6424024872
C        7.3780911928   14.3143849245   10.9320117247
C       11.6456125469   15.2405883504    7.6926433581
C       12.8357235515   14.9567143742    8.3759734343
C       14.0507858773   14.6478181556    7.6595654915
C       14.0527788113   14.6385803770    6.2605441961
C       12.8334656130   14.9346212941    5.5478526990
C       11.6555080070   15.2187614270    6.2162479235
C       10.3793437160   14.6867258282    8.1345548526
C       10.3320615005   13.8660370564    9.2560209550
C       11.5753476754   13.5637525879   10.0027024129
C       12.7940003689   14.0883101856    9.5661663907
C       13.9785309997   13.2548532258    9.5768265762
C       14.7657138994   13.5898845474    8.3814962809
C       15.4317131467   12.5849888759    7.7017879913
C       15.4514442183   12.5914896340    6.2209470727
C       14.7810968824   13.5889411509    5.5374560257
C       13.9811436958   13.2449452181    4.3471332139
C       12.7875883174   14.0658579088    4.3482053760
C       11.5793343154   13.5571912136    3.9108902775
C       10.3302146570   13.8568572468    4.6551880409
C       10.3844722784   14.6751778885    5.7749484604
C        9.5885525176   14.3438227075    6.9525672202
C       13.9015983599   11.9128785883   10.0028764658
C       14.6152343190   10.8738560609    9.2728173421
C       15.3710439482   11.2178000411    8.1403251723
C       12.6290974813   11.3662456099   10.4523031299
C       15.3867267051   11.2066463934    5.7818404017
C       13.9174914000   11.9172913900    3.9177586400
C       11.4916857457   12.1791958253    3.4622124969
C        9.5017297942   12.6642250878    4.6384634439
C        8.7980195129   13.1953242955    6.9499516464
C       12.4753103961    8.3060293579    7.6981278232
C       11.2845915357    8.5912991135    8.3797441904
C       10.0700800033    8.8985352978    7.6612666758
C       10.0692212755    8.9041204181    6.2618478480
C       11.2891604667    8.6056530397    5.5509554323
C       12.4673593262    8.3233806180    6.2220634222
C       13.7400970737    8.8606556133    8.1407576322
C       13.7860345665    9.6821196249    9.2624310588
C       12.5418120366    9.9856354050   10.0070329725
C       11.3238467531    9.4611618964    9.5693057446
C       10.1390642733   10.2942005556    9.5766171419
C        9.3545958131    9.9572738727    8.3809440529
C        8.6908878815   10.9604094966    7.6987710399
C        8.6721668845   10.9518955615    6.2176294156
C        9.3423423206    9.9529461125    5.5359384951
C       10.1436343407   10.2956092310    4.3456828771
C       11.3369211705    9.4744917575    4.3493761773
C       12.5469947956    9.9845019924    3.9130976195
C       13.7954160885    9.6854789646    4.6604791504
C       13.7387928899    8.8674409701    5.7812579471
C       14.5326739504    9.2013689180    6.9599172619
C       10.2150757194   11.6359845732    9.9995067159
C        9.5038421912   12.6733428593    9.2666570447
C        8.7508688772   12.3281729376    8.1348921365
C       11.4867718330   12.1834969685   10.4502411352
C        8.7368696238   12.3372946379    5.7764204153
C       10.2090728883   11.6241072654    3.9151224685
C       12.6355141738   11.3620634021    3.4633869880
C       14.6236297847   10.8788213290    4.6436915574
C       15.3239649071   10.3500935239    6.9563206480
135  
Iteration 2 Energy -4243.64451349
C       10.9042329341   16.9177656577    2.3752301508
C       11.8138876554   16.2111203083    1.5366054031
C       13.1389803451   16.5578441109    1.9272890995
C       13.0519617987   17.4804615464    3.0072791343
C       11.6778290249   17.7039653480    3.2932159344
C        9.6408419907   16.4448708432    2.6734168761
C        9.2218565176   15.3065323182    1.8871111241
H        8.2132447098   14.9656881667    1.9382109332
C       10.1067680667   14.6114736588    1.0640371463
H        9.7436305315   13.7657125389    0.5255488505
C       11.4950887300   14.9968469958    0.9404130404
C       12.6410520394   14.2013045240    0.5465235344
H       12.5006458382   13.3342841987   -0.0584706322
C       13.9339350980   14.5243860844    0.9479747998
H       14.7303082782   13.8746012436    0.6655552975
C       14.2184103113   15.7007761179    1.7493804592
C       15.3446854809   15.9616267470    2.6207689813
H       16.2603544174   15.4353264657    2.4742764078
C       15.2683518697   16.8716584778    3.6732292905
H       16.1314485987   17.0131249480    4.2828636540
C       14.0527565845   17.6037708007    3.9666467139
C       13.6248050172   18.2017763831    5.2091487427
H       14.3472454058   18.4606406284    5.9490911540
C       12.2745123466   18.4331061291    5.4791065799
H       12.0215351555   18.8822390355    6.4120906343
C       11.2290574886   18.0725349890    4.5498235671
C        9.8131779172   17.7816047463    4.8264764434
C        9.0299380799   16.9855711259    3.8954916135
C        7.6916807987   16.6471537975    4.2358419872
H        7.1207720667   16.0566112859    3.5572454429
C        7.1490228527   17.0848378132    5.4222445270
C        7.9168509229   17.8559638414    6.3392897607
C        9.2254567538   18.1822828152    6.0570548491
H        9.8037710258   18.7412316596    6.7554247196
C        5.7756577728   16.8663861377    6.0710695593
H        4.9726328379   16.5739808433    5.4180069876
C        5.6383536585   18.2499564043    6.8122059931
H        5.6084538002   19.0846038700    6.1315478359
H        4.8018448813   18.2787100295    7.4903788185
C        7.0136169202   18.1158117451    7.5517983394
H        7.3017350167   18.9197557279    8.2059826180
C        6.7939122950   16.7394126017    8.2104543465
C        6.0238918318   15.9771698132    7.2982986635
C        5.6882355614   14.6694283988    7.5726864303
H        5.1444868216   14.0857488195    6.8665265481
C        6.0675746599   14.0911208190    8.8124111761
C        6.8575201550   14.8704327573    9.7534798153
C        7.2198287104   16.2021635209    9.4060136035
H        7.8171606041   16.7751158327   10.0759670156
C        6.0040404742   12.2757044138   10.3975041912
C        6.7888424488   13.0417688521   11.3222167748
C        7.4075708242   12.1305792040   12.2216403402
C        7.0019803902   10.8123233135   11.8764344503
C        6.1437825094   10.9024753764   10.7395075089
C        5.7245469452   12.6912182998    9.1113244887
C        5.3793165491   11.6320841440    8.1865547358
H        5.0283068091   11.8741378486    7.2098813171
C        5.5130052942   10.2860671530    8.5261567096
H        5.2506902030    9.5493488887    7.8010685289
C        6.0158454056    9.8734747339    9.8193414424
C        6.6620224006    8.6302817368   10.1947467516
H        6.5123367089    7.7621574596    9.5941757867
C        7.4910682816    8.5423017376   11.3082928335
H        7.9352779335    7.6021507324   11.5449728212
C        7.7798571094    9.6954380843   12.1443408835
C        8.9300313578    9.9434129081   12.9941680981
H        9.5080932497    9.1181132611   13.3428233828
C        9.3138719184   11.2317751958   13.3503988946
H       10.1622611421   11.3579541068   13.9838440223
C        8.6069363509   12.4047414105   12.8678118507
C        9.0790408582   13.7602227617   12.7114413314
H        9.9210194946   14.0932021755   13.2739489976
C        8.4747081840   14.6478684159   11.8209516417
H        8.8833076734   15.6281902719   11.7331998350
C        7.3396252831   14.2692431632   11.0055199282
C       11.6475995555   15.2398009167    7.6915958321
C       12.8335610489   14.9549160675    8.3785584461
C       14.0526498057   14.6449986377    7.6605227771
C       14.0542547533   14.6348608828    6.2617884499
C       12.8329976786   14.9309373928    5.5464278663
C       11.6556296314   15.2181330160    6.2204235081
C       10.3786452607   14.6849051916    8.1346083721
C       10.3327310825   13.8632589007    9.2567107103
C       11.5703849039   13.5624050531   10.0007109769
C       12.7894024275   14.0882762937    9.5665396235
C       13.9791391358   13.2547834802    9.5771148572
C       14.7657508594   13.5899617973    8.3847302346
C       15.4345167120   12.5838448358    7.7007986988
C       15.4529703501   12.5879842052    6.2247902218
C       14.7794045265   13.5867068613    5.5374961898
C       13.9817167945   13.2425690406    4.3512272556
C       12.7862688601   14.0652415578    4.3531009616
C       11.5752352216   13.5528696142    3.9140885314
C       10.3317296440   13.8528775319    4.6537537173
C       10.3835861279   14.6726157240    5.7758706261
C        9.5882366746   14.3417136813    6.9524204111
C       13.9027702605   11.9167857284   10.0030352812
C       14.6165088091   10.8741846745    9.2751100310
C       15.3717595663   11.2123061525    8.1432647530
C       12.6294042372   11.3675790265   10.4518273197
C       15.3870047830   11.2018909879    5.7832523947
C       13.9172746004   11.9155599604    3.9198329471
C       11.4923370315   12.1715960623    3.4636344339
C        9.5018020563   12.6602385795    4.6388495103
C        8.7976226118   13.1935197334    6.9494852162
C       12.4735416602    8.3018913968    7.6985938551
C       11.2867445389    8.5894607318    8.3821923519
C       10.0689036650    8.8967449060    7.6602480526
C       10.0682906153    8.9005890719    6.2608544081
C       11.2905253760    8.6004864366    5.5483003911
C       12.4681662124    8.3165352101    6.2272927477
C       13.7405829891    8.8578719635    8.1441007027
C       13.7851099354    9.6810298481    9.2671682377
C       12.5457893926    9.9840839567   10.0069293692
C       11.3280395073    9.4585754727    9.5689533612
C       10.1387878232   10.2919334849    9.5730506713
C        9.3558398682    9.9536135003    8.3802782378
C        8.6898537624   10.9566850453    7.6930211028
C        8.6720018501   10.9486767721    6.2171866874
C        9.3448273147    9.9472321366    5.5323291458
C       10.1444979622   10.2884115994    4.3460368406
C       11.3397373478    9.4652066930    4.3515063750
C       12.5538286970    9.9791728575    3.9149388602
C       13.7964056926    9.6808110012    4.6602327508
C       13.7413105414    8.8623237472    5.7842805336
C       14.5336584350    9.1974961897    6.9634988867
C       10.2139714014   11.6293184549    9.9948154952
C        9.5031630194   12.6689993712    9.2632418674
C        8.7516000035   12.3287223383    8.1324997490
C       11.4854642097   12.1795887737   10.4478938229
C        8.7379817619   12.3352940511    5.7736714324
C       10.2115871967   11.6169729566    3.9145613903
C       12.6376770656   11.3600686861    3.4649491534
C       14.6257350048   10.8748058727    4.6471703262
C       15.3254340334   10.3461196525    6.9606290307
135  
Iteration 3 Energy -4243.65432409
C       10.8846615042   16.8521401954    2.4535887067
C       11.7921078761   16.0948790770    1.6549568327
C       13.1165382555   16.4077122837    2.0786362066
C       13.0337622489   17.3596953496    3.1384741954
C       11.6572667570   17.6351096012    3.3786063145
C        9.5984410761   16.4256282882    2.7261121238
C        9.1720703768   15.2806002989    1.9477373315
H        8.1336759488   14.9670664803    1.9884378921
C       10.0540082059   14.5387343341    1.1643917683
H        9.6786793765   13.6720055297    0.6268932595
C       11.4552345419   14.8774720603    1.0754437597
C       12.5874801543   14.0359324107    0.7367231782
H       12.4269420249   13.1403078951    0.1427193006
C       13.8762727373   14.3272104568    1.1695159748
H       14.6794690636   13.6356758556    0.9297827615
C       14.1706412672   15.5127455154    1.9526720393
C       15.2792302430   15.7598791460    2.8534865415
H       16.1906753369   15.1802146242    2.7370803142
C       15.2074783261   16.6937487343    3.8824761313
H       16.0668105871   16.8246151903    4.5345872877
C       14.0089165540   17.4720963777    4.1226457121
C       13.5615290802   18.1131583780    5.3384455624
H       14.2860475931   18.3634536549    6.1083698884
C       12.2169712741   18.3923479982    5.5671910040
H       11.9446651002   18.8701731941    6.5035647189
C       11.1859357578   18.0438129337    4.6119654201
C        9.7570193339   17.7970812379    4.8567345783
C        8.9713159966   17.0060553354    3.9235737941
C        7.6209166998   16.7018541667    4.2436459891
H        7.0356101824   16.1012457451    3.5545914003
C        7.0710444608   17.1560850731    5.4216743387
C        7.8424701371   17.9213692899    6.3377463346
C        9.1572280726   18.2278932843    6.0696631952
H        9.7483624201   18.7915844469    6.7845908589
C        5.6912038094   16.9542051033    6.0648982459
H        4.8781318082   16.6587011196    5.4020343826
C        5.5588813568   18.3375232689    6.8072120976
H        5.5318456795   19.1868386059    6.1175565760
H        4.7093207585   18.3689146541    7.4960677910
C        6.9368878955   18.1949846439    7.5469378425
H        7.2377608495   19.0043824304    8.2122950654
C        6.7241111067   16.8163294528    8.1936171274
C        5.9485870478   16.0536005202    7.2842106957
C        5.6291964874   14.7413913237    7.5560216702
H        5.0722471281   14.1529076898    6.8342259442
C        6.0409846776   14.1455257238    8.7786416700
C        6.8373065729   14.9270414574    9.7131872962
C        7.1666437468   16.2661537047    9.3758200712
H        7.7817049482   16.8463299381   10.0557975213
C        6.0705498389   12.2949940629   10.3274456164
C        6.8620807980   13.0635714596   11.2468093689
C        7.5398570750   12.1530155340   12.1074674455
C        7.1615052757   10.8295626638   11.7396396214
C        6.2633712737   10.9175728419   10.6343932324
C        5.7400284985   12.7322092451    9.0590414670
C        5.3972929783   11.6810241434    8.1252782988
H        5.0084155871   11.9407629059    7.1455555088
C        5.5798075849   10.3329713046    8.4266305370
H        5.3180391041    9.5910095750    7.6769817734
C        6.1363171662    9.9055590141    9.6914790781
C        6.8332776109    8.6771687516   10.0185395538
H        6.6918858026    7.8036105458    9.3879262733
C        7.7025402522    8.5903731128   11.1008854461
H        8.1974391118    7.6432879047   11.2987949603
C        7.9831730595    9.7309014049   11.9546802749
C        9.1516822538    9.9966613928   12.7743657278
H        9.7804618296    9.1667706051   13.0855312658
C        9.5093223686   11.2865833543   13.1512224244
H       10.3945030430   11.4282432624   13.7655205765
C        8.7504057494   12.4465312714   12.7217801379
C        9.1739692851   13.8207409309   12.5816233230
H       10.0434649679   14.1713836588   13.1306098986
C        8.5155321832   14.7078679994   11.7317584018
H        8.9055197995   15.7177127952   11.6490766344
C        7.3673723695   14.3137183381   10.9419972267
C       11.6454362179   15.2461759160    7.6873181665
C       12.8241265530   14.9593404133    8.3805506819
C       14.0501283277   14.6492276374    7.6579285266
C       14.0518490185   14.6401185021    6.2588836652
C       12.8270145490   14.9370406214    5.5377599031
C       11.6507741914   15.2268711381    6.2241682929
C       10.3722938809   14.6890310486    8.1344203847
C       10.3278313485   13.8663468036    9.2594066483
C       11.5561636366   13.5679560840    9.9980827927
C       12.7755963911   14.0960106415    9.5651240105
C       13.9742198462   13.2627329902    9.5743036268
C       14.7592767790   13.5992275204    8.3861101889
C       15.4327553057   12.5922724241    7.6941439325
C       15.4495999667   12.5936157457    6.2269399435
C       14.7717260762   13.5952279789    5.5315423083
C       13.9784787941   13.2516946863    4.3504579754
C       12.7794022647   14.0781837590    4.3534808010
C       11.5629276935   13.5581610764    3.9132638491
C       10.3297406669   13.8565354084    4.6479853718
C       10.3772438304   14.6773402992    5.7752585906
C        9.5832966744   14.3458126393    6.9515973844
C       13.8985349408   11.9319345609   10.0009367991
C       14.6124241536   10.8842806290    9.2754685181
C       15.3660512599   11.2131554013    8.1442333805
C       12.6238691454   11.3781809245   10.4514343782
C       15.3809768176   11.2052918097    5.7814453550
C       13.9117736272   11.9246650980    3.9176110734
C       11.4879138956   12.1703527128    3.4617117146
C        9.4970550847   12.6630107892    4.6391546153
C        8.7921814326   13.1980704725    6.9500927724
C       12.4649316686    8.3052535164    7.6979652829
C       11.2847452867    8.5953335550    8.3870962926
C       10.0605224396    8.9025856217    7.6597687091
C       10.0614829244    8.9048040021    6.2602280602
C       11.2879230971    8.6031089065    5.5429658105
C       12.4640742868    8.3162335063    6.2348507949
C       13.7356948630    8.8636640217    8.1473109882
C       13.7774663892    9.6885453743    9.2730103839
C       12.5467480159    9.9894803247   10.0066145152
C       11.3287476056    9.4616005897    9.5700250742
C       10.1303462316   10.2946990090    9.5715583510
C        9.3504301451    9.9544232461    8.3824558221
C        8.6812329205   10.9577577061    7.6855981859
C        8.6665936768   10.9519297123    6.2188375294
C        9.3443955514    9.9475718724    5.5274117931
C       10.1408632632   10.2873869574    4.3468306175
C       11.3394406532    9.4605948343    4.3546688037
C       12.5595972011    9.9815780474    3.9160381002
C       13.7913456010    9.6844140068    4.6569504453
C       13.7390507912    8.8652604619    5.7869117457
C       14.5287321154    9.2021821024    6.9666333873
C       10.2044278097   11.6252804459    9.9924385574
C        9.4947316264   12.6692922677    9.2614367221
C        8.7465063063   12.3375672888    8.1312805526
C       11.4771345216   12.1804965609   10.4468345270
C        8.7355927508   12.3403285352    5.7699002821
C       10.2109450585   11.6153638892    3.9123463962
C       12.6358321767   11.3682636036    3.4634198837
C       14.6232707889   10.8798104397    4.6490402063
C       15.3211082233   10.3505724545    6.9641514871
135  
Iteration 4 Energy -4243.65837079
C       10.8805217326   16.8037462462    2.4454694637
C       11.8020624724   16.0982073852    1.6242652562
C       13.1236244003   16.5137430785    1.9587131826
C       13.0285565044   17.4760907883    3.0043925477
C       11.6504110745   17.6479403493    3.3129113589
C        9.6354022256   16.3057522020    2.7696199952
C        9.2457618321   15.1083273887    2.0524955378
H        8.2632334781   14.6647881069    2.1973432043
C       10.1489506253   14.4159301026    1.2502935716
H        9.8217817398   13.4728199127    0.8161321919
C       11.5204235575   14.8479506023    1.0877652076