
Host: sophon

Timers On : Thu May  4 15:39:35 2023
Timers Off: Thu May  4 15:39:35 2023

Wall Time:        0.31 seconds

                                                       Time (seconds)
Module                                       User      System        Wall        Calls

--------------------------------------------------------------------------------------

**************************************************************************************
