106  
Iteration 0 Energy -3050.72272988
C       24.7520000000   -0.4250000000   33.2290000000
C       24.3840000000    0.1980000000   34.5760000000
C       24.5560000000   -0.7720000000   35.7490000000
C       23.9420000000   -2.1380000000   35.4530000000
C       24.4150000000   -2.6590000000   34.0780000000
C       23.8260000000   -4.0410000000   33.7530000000
C       24.6000000000    2.5390000000   34.9080000000
C       25.4520000000    3.7900000000   34.9940000000
N       25.2230000000    1.3770000000   34.7340000000
O       24.3090000000    0.5240000000   32.2660000000
O       24.0300000000   -0.2590000000   36.9600000000
O       24.3190000000   -3.0270000000   36.5070000000
O       24.1560000000   -1.7150000000   33.0380000000
O       22.5180000000   -3.8680000000   33.3000000000
O       23.3530000000    2.5600000000   35.0160000000
C       23.2470000000   -3.6030000000   37.0670000000
C       23.7600000000   -4.8600000000   37.7400000000
C       22.6140000000   -5.6380000000   38.3560000000
C       21.7110000000   -4.7490000000   39.2120000000
C       21.1790000000   -3.6390000000   38.2980000000
C       20.2290000000   -2.6830000000   38.9930000000
O       24.3750000000   -5.6440000000   36.7520000000
O       23.1020000000   -6.7420000000   39.0830000000
O       22.3770000000   -4.2160000000   40.3590000000
O       22.2910000000   -2.8900000000   37.8640000000
O       20.1210000000   -1.5550000000   38.1680000000
C       21.1020000000   -7.7170000000   39.7440000000
C       22.4650000000   -7.9690000000   39.0750000000
C       23.3790000000   -8.9170000000   39.8550000000
C       22.9910000000  -10.3660000000   39.6410000000
C       22.8030000000  -10.7450000000   38.1670000000
C       21.8130000000   -9.7760000000   37.5480000000
C       21.5240000000  -10.0410000000   36.0680000000
C       20.6300000000   -8.9170000000   35.5710000000
C       20.0850000000   -9.1610000000   34.1570000000
C       22.5340000000  -13.2060000000   37.7210000000
C       23.7990000000  -13.1850000000   36.9530000000
N       22.1210000000  -12.0370000000   38.2440000000
O       20.0530000000   -7.6250000000   39.0500000000
O       21.0500000000   -7.5340000000   40.9840000000
O       23.9960000000  -11.2420000000   40.1690000000
O       22.3020000000   -8.4430000000   37.7150000000
O       22.6900000000  -10.1740000000   35.2290000000
O       19.5760000000   -8.7720000000   36.5410000000
O       19.3470000000   -7.9840000000   33.7580000000
O       21.8810000000  -14.2560000000   37.8520000000
C       24.8480000000    0.3320000000   37.8180000000
C       24.1800000000    1.2910000000   38.7750000000
C       23.3150000000    0.5150000000   39.7680000000
C       24.1520000000   -0.4950000000   40.5110000000
C       24.8170000000   -1.3950000000   39.4970000000
C       25.7010000000   -2.4140000000   40.2190000000
O       23.3250000000    2.1320000000   38.0550000000
O       22.7980000000    1.4220000000   40.7120000000
O       25.1630000000    0.2070000000   41.1690000000
O       25.5730000000   -0.6210000000   38.5490000000
H       25.8022436400   -0.6146621600   33.1520807800
H       23.3455552100    0.4558321400   34.5834166100
H       25.6119046800   -0.8919436300   35.8738152000
H       22.8752877800   -2.0673055700   35.4079739400
H       25.4764463700   -2.7798365700   34.1382504800
H       23.7688568900   -4.5812764600   34.6748112700
H       24.3905294700   -4.4370519400   32.9348622800
H       25.3568707800    4.2199733800   35.9691786100
H       26.4760080200    3.5371910300   34.8140133600
H       25.1244609600    4.4957886900   34.2595066400
H       24.6478514200    0.2836917200   31.4005338600
H       22.1585877800   -4.7157928700   33.0285776200
H       24.4486084300   -4.6056495100   38.5184755900
H       22.0043062900   -6.0085738900   37.5585988700
H       20.9081861700   -5.3323984100   39.6120453100
H       20.6360981900   -4.1055520400   37.5027096000
H       20.6985295200   -2.3703138400   39.9022136100
H       19.2675524700   -3.1517525500   39.0211016800
H       24.8515535600   -6.3664383300   37.1674269700
H       21.7877944400   -3.6148315200   40.8205552700
H       19.6722587500   -0.8522958700   38.6438552400
H       23.2121171400   -8.7107712100   40.8915904700
H       24.3575690500   -8.8027481800   39.4375684100
H       22.0550718400  -10.4761990400   40.1477490900
H       23.7171635300  -10.7474309200   37.6109432400
H       20.8828039700   -9.9153202900   38.0581227300
H       21.0478306600  -10.9968194400   36.0003838100
H       21.1952734500   -8.0129845100   35.4808783200
H       19.3827180300   -9.9654578700   34.2244356400
H       20.9285401700   -9.2405807800   33.5035423700
H       24.5240434200  -13.8006653600   37.4430695900
H       23.6230987900  -13.5581525900   35.9657229800
H       24.1643998100  -12.1809999300   36.8949755900
H       23.7862891700  -12.1486167700   39.9330606200
H       22.4158470900  -10.3402625700   34.3241260100
H       19.0530868700   -7.9946336600   36.3315640200
H       19.1413293700   -8.0373541100   32.8218093500
H       24.9360528100    1.8479012000   39.2879768100
H       22.5333489000    0.0150625400   39.2350984100
H       23.5527283200   -1.0622344100   41.1921890900
H       24.0664270800   -1.9249358700   38.9486312600
H       26.0671220300   -3.3741535000   39.9207385000
H       24.7802309400   -2.9585916900   40.1965450400
H       26.3696954100   -2.1169584200   39.4382870300
H       23.0172899500    2.8399867500   38.6256744100
H       22.3999298600    0.9360932300   41.4379716000
H       25.7786772200   -0.4143068200   41.5646253100
H       21.2526453100  -12.0531461300   38.7396807700
H       26.2209145400    1.3160641800   34.7127070100
H       20.1152514500   -7.4991069700   38.1003286400
106  
Iteration 1 Energy -3050.77035023
C       24.7313154966   -0.4029890726   33.2101765871
C       24.3434598932    0.2224119717   34.5535256544
C       24.5214828378   -0.7493200466   35.7268922932
C       23.9261771994   -2.1167683198   35.4231284754
C       24.4132958463   -2.6345271230   34.0536019887
C       23.8394725824   -4.0186517895   33.7169366737
C       24.6082289984    2.6267678306   34.8983891279
C       25.5800952785    3.7864219085   34.9850056960
N       25.1598908744    1.4151193507   34.7247404886
O       24.2869205074    0.5214016317   32.2367068508
O       23.9731805671   -0.2487878088   36.9397211244
O       24.3109066467   -3.0095405860   36.4804473475
O       24.1495227510   -1.6965294785   33.0130741915
O       22.5225328726   -3.8459444294   33.2533039349
O       23.3742158574    2.7696447285   35.0013298027
C       23.2692251777   -3.6164898744   37.0652148869
C       23.7938209152   -4.8735484984   37.7358650775
C       22.6547474038   -5.6412238328   38.3805243729
C       21.7775295540   -4.7353568169   39.2463636059
C       21.2343802865   -3.6285997631   38.3315092790
C       20.3067825737   -2.6498878958   39.0381780048
O       24.3932609582   -5.6664600163   36.7387142101
O       23.1636800616   -6.7464650566   39.1039375635
O       22.4879847000   -4.2046297921   40.3686121180
O       22.3453980176   -2.8917147011   37.8588118852
O       20.1837920143   -1.5230333664   38.1981939104
C       21.1637689264   -7.7390015872   39.8043474961
C       22.5182131382   -7.9745065613   39.1067161418
C       23.4406125646   -8.9269305427   39.8722503475
C       23.0372895038  -10.3758231263   39.6517828622
C       22.8256030974  -10.7407324611   38.1720607809
C       21.8329549727   -9.7524081982   37.5740417701
C       21.5323380058   -9.9954372923   36.0936369275
C       20.6411036425   -8.8695818162   35.5753412073
C       20.1144807048   -9.1292039040   34.1587358427
C       22.4543221462  -13.2534374430   37.7191258370
C       23.6816113417  -13.4577329266   36.8961748702
N       22.1407450253  -12.0377568929   38.2292897149
O       20.1026043511   -7.6551371865   39.0924630603
O       21.1216487689   -7.5694032353   41.0336028605
O       24.0449875767  -11.2481233714   40.1712859372
O       22.3327339229   -8.4263274905   37.7499457303
O       22.7103934388  -10.1238166322   35.2768358080
O       19.5662255549   -8.7093142053   36.5156470687
O       19.3890025835   -7.9490715894   33.7540332547
O       21.6977814895  -14.2163516295   37.9217905411
C       24.7763979332    0.3518921374   37.8240058755
C       24.0728843909    1.2996035575   38.7712443518
C       23.2059267276    0.5015147340   39.7495981493
C       24.0541781374   -0.5018683054   40.5036200281
C       24.7509849904   -1.3885526877   39.4914727044
C       25.6566273616   -2.4046535943   40.2386482267
O       23.2167047994    2.1342781995   38.0319757564
O       22.6501092857    1.4059954398   40.6828919700
O       25.0442636783    0.2148610096   41.1897271247
O       25.5123257092   -0.5920837305   38.5579183910
H       25.7934938517   -0.5777700219   33.1444743245
H       23.2977406041    0.4709850007   34.5470905900
H       25.5846488867   -0.8598282071   35.8628472166
H       22.8528748205   -2.0537128919   35.3728497640
H       25.4842632251   -2.7472571072   34.1223946001
H       23.7852471792   -4.5711785027   34.6392426663
H       24.4201706347   -4.4128524285   32.8995267031
H       25.5230270273    4.2276525979   35.9655105322
H       26.5831712221    3.4371627467   34.8079610837
H       25.3227812043    4.5245994888   34.2448413165
H       24.6431043947    0.2708834585   31.3762082216
H       22.1704100859   -4.6979696392   32.9745356338
H       24.5038542421   -4.6143690393   38.5059018754
H       22.0238069340   -6.0165928345   37.5925040617
H       20.9715445014   -5.3089204051   39.6712520206
H       20.6671463737   -4.1043025103   37.5483229108
H       20.7964982009   -2.3273056120   39.9417378825
H       19.3377439342   -3.1158795812   39.1010944416
H       24.8761091285   -6.3883805451   37.1567079348
H       21.9194913587   -3.5898712449   40.8441495813
H       19.7482858047   -0.8130835398   38.6821975467
H       23.2911275385   -8.7220570855   40.9176840175
H       24.4214329015   -8.8095383022   39.4449731426
H       22.0991955121  -10.4909277632   40.1712096229
H       23.7370014530  -10.7403427595   37.6057920371
H       20.8997879528   -9.8903141178   38.0932486082
H       21.0451179255  -10.9537092879   36.0213941306
H       21.2145674122   -7.9614607755   35.4890511514
H       19.4066642766   -9.9391264056   34.2192913421
H       20.9676083242   -9.2227806023   33.5087583359
H       24.3394181652  -14.1449209718   37.4007924087
H       23.4039781938  -13.8667528312   35.9398838625
H       24.1929295743  -12.5260698558   36.7459367997
H       23.8265968450  -12.1557104484   39.9325255906
H       22.4458119679  -10.2867382690   34.3654261940
H       19.0531077672   -7.9292543172   36.2739692272
H       19.1925264725   -8.0077424953   32.8128960952
H       24.8128437045    1.8714582393   39.3053053451
H       22.4381143673   -0.0153162568   39.1968234363
H       23.4493611494   -1.0896902088   41.1758220349
H       24.0104562894   -1.9265138963   38.9233128728
H       26.0423152911   -3.3668127216   39.9210089168
H       24.7472282162   -2.9831658675   40.2089637702
H       26.3450177873   -2.0966566623   39.4673376879
H       22.8882721961    2.8353378514   38.6054026798
H       22.2447922325    0.9108108252   41.4035628423
H       25.6584596368   -0.4160890979   41.5859256624
H       21.2768855209  -12.0218487144   38.7427789333
H       26.1597702566    1.3268672867   34.7115701853
H       20.1850608979   -7.5336528434   38.1368853482
106  
Iteration 2 Energy -3050.82792435
C       24.7415760569   -0.4757121761   33.1792048841
C       24.3212016350    0.1678374279   34.5099176190
C       24.5016913251   -0.8003382989   35.6909469018
C       23.9255088053   -2.1651624679   35.3790918925
C       24.4358505224   -2.6913165198   34.0260648295
C       23.8742254810   -4.0725874142   33.6730295451
C       24.5289290509    2.6033300742   34.8464731380
C       25.5030814780    3.7600259941   34.9624055877
N       25.0999566271    1.3761541196   34.6973418077
O       24.3070380653    0.3927859893   32.1774005866
O       23.9167226282   -0.3027189012   36.9005752842
O       24.3132528668   -3.0679637308   36.4425015144
O       24.1720892622   -1.7689717606   32.9795553634
O       22.5414125407   -3.8854030472   33.1898234253
O       23.3074387256    2.7650296590   34.8996584427
C       23.3275232597   -3.7222937931   37.0681205220
C       23.8498873233   -4.9807365701   37.7438064457
C       22.7059268668   -5.7031960785   38.4380011439
C       21.8860294285   -4.7452288913   39.3053939748
C       21.3483465691   -3.6443814597   38.3736973730
C       20.4770259684   -2.5998925420   39.0812449234
O       24.4183759816   -5.8051511320   36.7411130446
O       23.2350967496   -6.8123044807   39.1650140343
O       22.6854376987   -4.2289416259   40.3753664372
O       22.4717225433   -2.9570798319   37.8265209031
O       20.3501479790   -1.4842188459   38.1977980498
C       21.1991623817   -7.8000955866   39.9073868827
C       22.5475703877   -8.0288320814   39.1802136497
C       23.4512326646   -9.0114618546   39.9321908127
C       22.9861194592  -10.4496378172   39.6899638362
C       22.7430424744  -10.7769451020   38.1969676138
C       21.7835708192   -9.7231465113   37.6290372701
C       21.4772995239   -9.8967674352   36.1466331073
C       20.6386812271   -8.7260683675   35.6075313895
C       20.1393703560   -8.9603300688   34.1801735868
C       22.4269166226  -13.2147467853   37.5764623189
C       23.7143335620  -13.1195482742   36.7976240035
N       22.0324478086  -12.0644361612   38.1909778058
O       20.1172108067   -7.7132767958   39.1555247290
O       21.1585871189   -7.6561028459   41.1119084689
O       23.9690019507  -11.3353768258   40.2111170866
O       22.3331446218   -8.4260133665   37.8312912041
O       22.6845407736  -10.0460255466   35.3907759638
O       19.5343856384   -8.5174191591   36.4944008619
O       19.4858001243   -7.7370094875   33.7991191753
O       21.7619713510  -14.2578009225   37.6399701032
C       24.7131159609    0.3159701431   37.8190254674
C       23.9689229471    1.2733853593   38.7332165020
C       23.0987542791    0.4717509658   39.7141763759
C       23.9629547647   -0.5145235401   40.4994539029
C       24.6895938653   -1.4082399155   39.5011806297
C       25.6291206649   -2.4094953920   40.3194547062
O       23.1192701071    2.0956691952   37.9477666921
O       22.4941582387    1.4028998782   40.6079331409
O       24.9326044643    0.2266227149   41.2137809849
O       25.4653788720   -0.6034647612   38.5687595934
H       25.8259886876   -0.6295327842   33.1408085844
H       23.2623996955    0.4120121633   34.4714410260
H       25.5776122434   -0.9044814232   35.8512104039
H       22.8395283790   -2.1048398900   35.3184064809
H       25.5243995603   -2.8020603614   34.1132349619
H       23.8226484357   -4.6484973259   34.5965829417
H       24.4819796506   -4.4781277088   32.8616134943
H       25.4035629784    4.2139900484   35.9487611646
H       26.5300423002    3.4207482370   34.8272848932
H       25.2695162084    4.5036043120   34.2007088293
H       24.6975799002    0.1098166985   31.3326129472
H       22.1965905198   -4.7446219999   32.9026562706
H       24.5988375145   -4.7172331633   38.5010131040
H       22.0366678871   -6.0825176318   37.6646634766
H       21.0598929380   -5.2805771695   39.7746769987
H       20.7351293295   -4.1351589329   37.6136160471
H       20.9986266597   -2.2567155923   39.9765786360
H       19.4883142274   -3.0420514584   39.2137738013
H       24.8978063967   -6.5284026124   37.1774875458
H       22.1689007556   -3.5742726242   40.8688776851
H       19.9480431183   -0.7502523388   38.6877196056
H       23.3271846473   -8.8076074685   40.9928755438
H       24.4475454149   -8.9076229591   39.5056128262
H       22.0313917270  -10.5559933273   40.2173132484
H       23.6620825363  -10.7947533919   37.6224871191
H       20.8316838381   -9.8338533828   38.1504421729
H       20.9360520462  -10.8407651105   36.0458948907
H       21.2636116136   -7.8310941513   35.5556073657
H       19.3922107442   -9.7565846078   34.2026459961
H       21.0037418045   -9.1025351090   33.5312719846
H       24.4505923556  -13.7889634311   37.2425681839
H       23.5256468684  -13.4256234387   35.7694327530
H       24.1149251110  -12.1079563015   36.7955178232
H       23.7144338704  -12.2383211746   39.9607865101
H       22.4487688279  -10.1820642232   34.4612109777
H       19.0748823272   -7.7083299905   36.2096294537
H       19.3045393587   -7.7739944682   32.8474406356
H       24.6928183483    1.8722498528   39.2876402066
H       22.3426584967   -0.0775136477   39.1453364870
H       23.3469555769   -1.1187761157   41.1745864927
H       23.9533758033   -1.9588683021   38.9167572838
H       26.0151282361   -3.3873634180   39.9449594629
H       24.7354484805   -3.0450819304   40.3139244002
H       26.3632767290   -2.1116910932   39.5614149487
H       22.7723542794    2.7992594174   38.5183402680
H       22.0753657968    0.9122235454   41.3338652121
H       25.5342675096   -0.4338624564   41.6084804774
H       21.1525511297  -12.1076713452   38.6950261622
H       26.1081194398    1.2949371225   34.7141948085
H       20.2515474905   -7.6122264031   38.1889211367
106  
Iteration 3 Energy -3050.86981570
C       24.7154980032   -0.5335225699   33.1712755594
C       24.2898782154    0.1218985981   34.4977113494
C       24.4831011074   -0.8455712726   35.6799332202
C       23.9061492551   -2.2049964835   35.3658398520
C       24.4176694548   -2.7392977078   34.0216889066
C       23.8499233772   -4.1129385868   33.6627040122
C       24.3380267124    2.5023480240   34.8040463310
C       25.1375426937    3.7849975301   34.9532793773
N       25.0410266039    1.3370642294   34.6896202247
O       24.2805034572    0.2971756577   32.1517833828
O       23.8896406064   -0.3414460740   36.8879538120
O       24.3038207347   -3.1164470943   36.4209229061
O       24.1415511933   -1.8224514535   32.9781474790
O       22.5026782829   -3.9137295034   33.1932095782
O       23.1126960262    2.5117751234   34.7949096720
C       23.3590216284   -3.7997858072   37.0682886849
C       23.8795737706   -5.0437935594   37.7580009463
C       22.7277225511   -5.7294501558   38.4824666486
C       21.9338357321   -4.7341797923   39.3337626263
C       21.4012746780   -3.6524347611   38.3753443364
C       20.5634378741   -2.5637665056   39.0609829724
O       24.4426318653   -5.8950623409   36.7698736024
O       23.2753519026   -6.8233889506   39.2277752027
O       22.7914543521   -4.2197523928   40.3591563994
O       22.5313093363   -3.0071975298   37.7719673703
O       20.4327868224   -1.4763263201   38.1321418821
C       21.1884962011   -7.8074522863   39.9320176884
C       22.5626465231   -8.0334867311   39.2293768040
C       23.4230349011   -9.0418016478   39.9991708339
C       22.9259482655  -10.4714004795   39.7245639420
C       22.7204721036  -10.7685967210   38.2176274042
C       21.8157354205   -9.6681959404   37.6348264795
C       21.5755394114   -9.7698885061   36.1422805271
C       20.8230846147   -8.5371219282   35.6131159949
C       20.3718659798   -8.6808911506   34.1604527634
C       22.2722386791  -13.2572840968   37.5381154402
C       23.5345456944  -13.4863775328   36.7246330549
N       22.0069214889  -12.0496804422   38.1281225672
O       20.0733250125   -7.7185075476   39.1869947107
O       21.1312236620   -7.6790050894   41.1248329500
O       23.8716178624  -11.3649844186   40.2846889404
O       22.3874431903   -8.3918412683   37.8810321247
O       22.8273772601   -9.9340946113   35.4749154620
O       19.6931734247   -8.3017934391   36.4548419709
O       19.8060796450   -7.4032372129   33.8315556434
O       21.4529286281  -14.1710388068   37.6650711411
C       24.7206088863    0.2736401903   37.8035210524
C       23.9996960344    1.2675805961   38.6981511289
C       23.1332374466    0.5066327840   39.7158267916
C       23.9998496183   -0.4804390587   40.5051903427
C       24.6867504288   -1.4080409420   39.5079455095
C       25.6352833756   -2.3981900175   40.3765835594
O       23.1615551227    2.0981086917   37.8972337253
O       22.5441198563    1.4829138002   40.5800524487
O       24.9936623324    0.2502576761   41.2132553803
O       25.4790477091   -0.6355370439   38.5526826849
H       25.8123568414   -0.6713345852   33.1455110149
H       23.2245194753    0.3704784782   34.4430203224
H       25.5650658315   -0.9543598109   35.8479100712
H       22.8130417882   -2.1427535392   35.3140142547
H       25.5155042536   -2.8560941895   34.1073305770
H       23.8187605532   -4.7138260107   34.5785102360
H       24.4595478284   -4.5348759265   32.8526516733
H       24.9194394238    4.2285533792   35.9325567938
H       26.2168896496    3.6132507704   34.8747945778
H       24.8329563219    4.4893979015   34.1706631048
H       24.6848583754   -0.0083350201   31.3183001172
H       22.1642462794   -4.7798689753   32.9102219251
H       24.6442885229   -4.7635520243   38.5064753068
H       22.0484409576   -6.1221187376   37.7164723858
H       21.0928020274   -5.2389828893   39.8275478614
H       20.7712471512   -4.1623779896   37.6319072795
H       21.0898878461   -2.1946150997   39.9509608229
H       19.5701503332   -2.9896248955   39.2517862712
H       24.9156834085   -6.6063772958   37.2377997226
H       22.3120510943   -3.5363342557   40.8574885576
H       20.0468099864   -0.7267004473   38.6165745862
H       23.2884886454   -8.8393441155   41.0640371437
H       24.4440230330   -8.9461584021   39.6168487331
H       21.9430070893  -10.5772674989   40.2182404610
H       23.6657759366  -10.7922836471   37.6830750149
H       20.8305263462   -9.7559664502   38.1127244146
H       20.9876381394  -10.6864235626   35.9785844078
H       21.5041724948   -7.6732592816   35.6425966354
H       19.5880418599   -9.4496318426   34.1025057752
H       21.2449947619   -8.8608554053   33.5204256588
H       24.1310935537  -14.2664548918   37.2125253630
H       23.2414076315  -13.8361656296   35.7285777131
H       24.1561944339  -12.5973393967   36.6077189188
H       23.6025047102  -12.2630964069   40.0180741922
H       22.6544889683  -10.0285607313   34.5240702544
H       19.3011782422   -7.4551575190   36.1678071501
H       19.6551085354   -7.3840857604   32.8715383753
H       24.7425428343    1.8671556118   39.2401528301
H       22.3575412396   -0.0472754503   39.1646282719
H       23.3776545786   -1.0713631784   41.1999760516
H       23.9272820775   -1.9477756700   38.9388883960
H       25.9123201741   -3.3772558569   39.8553653150
H       24.7483703760   -3.0586359228   40.4609978086
H       26.4335944765   -2.1476584112   39.6550479915
H       22.8425749488    2.8134709901   38.4738957149
H       22.1212158573    1.0146028446   41.3221426609
H       25.5712229134   -0.4517176455   41.5852498743
H       21.1093337763  -12.0487325342   38.6095314741
H       26.0541516778    1.3133652589   34.7314744980
H       20.2203749179   -7.6541672170   38.2113357937
106  
Iteration 4 Energy -3050.95167404
C       24.4845660019   -0.6047733247   33.1097167965
C       24.1013463563    0.0628675177   34.4467157553
C       24.3312616732   -0.9168891097   35.6146096276
C       23.7247938890   -2.2581563979   35.3135034330
C       24.1880005301   -2.8054765130   33.9632232610
C       23.5791438040   -4.1618036495   33.6193679317
C       24.3494854010    2.5586192849   34.7701500168
C       25.4303412184    3.6100594053   34.9350795806
N       24.8375196182    1.2847061221   34.6365550673
O       24.0287406535    0.2024524946   32.0856672397
O       23.7638402784   -0.4278689072   36.8427404068
O       24.1631183810   -3.1680125611   36.3529634357
O       23.8746501544   -1.8805498670   32.9393749061
O       22.2046072237   -3.9426311645   33.2277669071
O       23.1580330143    2.8412062605   34.7584105622
C       23.2786535661   -3.8531178919   37.0708631819
C       23.8181103016   -5.0593907841   37.7882720837
C       22.6810546520   -5.6905746215   38.5905753923
C       21.9330317599   -4.6438666678   39.4244125940
C       21.3707528047   -3.6071136338   38.4342307092
C       20.5877583044   -2.4679790814   39.0954281710
O       24.3480638733   -5.9634396594   36.8278934500
O       23.2727131521   -6.7478040005   39.3603399953
O       22.8774416913   -4.1092092559   40.3585957770
O       22.4790982695   -3.0212363887   37.7216821173
O       20.4116562319   -1.4365451153   38.1082574319
C       21.1365930465   -7.7451472862   39.9923301285
C       22.5486765012   -7.9592400338   39.3399118432
C       23.3530066148   -8.9908200346   40.1370234208
C       22.8458099891  -10.4146286134   39.8200395981
C       22.7193350514  -10.6792232942   38.2995455365
C       21.8801964526   -9.5472191165   37.6764886079
C       21.7701718287   -9.5810261549   36.1689694460
C       21.1314614348   -8.2899955041   35.6302625491
C       20.7966814814   -8.3444530929   34.1438326169
C       22.3506647527  -13.1435835440   37.4699489651
C       23.6521321092  -13.4124238351   36.7203666060
N       22.0427679849  -11.9578230631   38.0919995916
O       20.0535844715   -7.6797969084   39.1670390294
O       21.0036049080   -7.6213890938   41.1799400199
O       23.7489104529  -11.3093893572   40.4370329014
O       22.4506513420   -8.2865496442   37.9894077788
O       23.0840722720   -9.7534090476   35.6457399436
O       19.9435159169   -8.0154087624   36.3745761784
O       20.3335629503   -7.0225687433   33.8379133423
O       21.5086909358  -14.0382172253   37.5189446454
C       24.6649810815    0.1020031253   37.7659685809
C       24.0266214982    1.1120705270   38.6996997136
C       23.1332504124    0.3756005271   39.7137503512
C       23.9440586303   -0.7109401174   40.4282477269
C       24.5301087663   -1.6395476658   39.3682450399
C       25.4342888645   -2.7263404822   40.1937664325
O       23.2444648969    2.0455282400   37.9491719339
O       22.6157538010    1.3691483304   40.6099820803
O       24.9966780538   -0.1001619354   41.1824666223
O       25.3812674548   -0.8792186351   38.4481022537
H       25.5884438903   -0.7394670988   33.0634701285
H       23.0375451125    0.3298804647   34.4022752718
H       25.4168645343   -1.0547293462   35.7626582512
H       22.6276852137   -2.1791514698   35.3137685017
H       25.2919969768   -2.9431446345   34.0069119155
H       23.6062159425   -4.7934649410   34.5185405010
H       24.1501663180   -4.6126266826   32.7927196138
H       25.3134760791    4.0800286485   35.9233675737
H       26.4504106251    3.2087089764   34.8544953317
H       25.2929438057    4.3831652050   34.1653555171
H       24.4155002019   -0.1252100179   31.2522951837
H       21.8560350603   -4.8140394834   32.9699521884
H       24.6172396346   -4.7409317601   38.4936239242
H       21.9809619594   -6.1159705150   37.8585003528
H       21.0948885003   -5.1060608074   39.9721392305
H       20.7100719010   -4.1508229327   37.7379405490
H       21.1406604296   -2.0562079326   39.9539811508
H       19.6095095015   -2.8725515002   39.3976128544
H       24.8249881964   -6.6455243957   37.3354148454
H       22.4505080168   -3.3905540179   40.8587998131
H       20.0540819021   -0.6658234559   38.5832774667
H       23.1971369119   -8.7911338635   41.2018809325
H       24.4009455225   -8.8963982161   39.8260459768
H       21.8303175249  -10.5331521610   40.2548380114
H       23.7046166694  -10.6961912719   37.8385479539
H       20.8535539742   -9.6183138228   38.0737249782
H       21.1529113430  -10.4631950721   35.9128825544
H       21.8579204816   -7.4712271965   35.7764616979
H       19.9940580636   -9.0820516473   33.9699199831
H       21.6954590230   -8.5744392332   33.5484491344
H       24.1787351225  -14.2352499819   37.2262779500
H       23.3891670928  -13.7433142787   35.7056298178
H       24.3379174868  -12.5670816128   36.6348002549
H       23.4827337339  -12.2046325448   40.1507022908
H       23.0200596690   -9.8093859973   34.6772970537
H       19.6377933704   -7.1409555161   36.0640467922
H       20.2553719827   -6.9555959186   32.8705093132
H       24.8212810810    1.6343144464   39.2569329198
H       22.3113977863   -0.1006814342   39.1497896360
H       23.2842740742   -1.2987738260   41.0993808331
H       23.7199508166   -2.0826653780   38.7846160231
H       25.3537565729   -3.4603011402   39.2596898463
H       24.7162422128   -3.5234295845   40.5616467707
H       26.4881336527   -2.6957522478   39.7932193245
H       22.9974583732    2.7419864480   38.5830711633
H       22.1652267109    0.9001371299   41.3364332323
H       25.5127930522   -0.8835392466   41.4808012938
H       21.1087470252  -11.9918513831   38.5001321191
H       25.8450596380    1.1772365422   34.6688664734
H       20.2944280524   -7.6876881942   38.2011965130
106  
Iteration 5 Energy -3050.97359114
C       24.3666891360   -0.7283074593   33.1825941984
C       24.0098770701   -0.0289462324   34.5082670705
C       24.3060501705   -0.9544444596   35.7063861285
C       23.7138900466   -2.3318906390   35.4656464461
C       24.1535313423   -2.9053467748   34.1169974456
C       23.5594781590   -4.2809680590   33.8274165196
C       24.1718249543    2.4632865139   34.7245272653
C       25.1837720971    3.5899859307   34.8153009238
N       24.7241728211    1.2153422208   34.6244594063
O       23.8559384737    0.0343025902   32.1471848834
O       23.7855789239   -0.4023700187   36.9286512946
O       24.1773560546   -3.2333493876   36.4996966278
O       23.7886389994   -2.0193340161   33.0762372279
O       22.1721106271   -4.1007587523   33.4720104591
O       22.9630732917    2.6714541490   34.7395177744
C       23.2478318851   -3.9146764327   37.1747460288
C       23.7345877973   -5.1345673871   37.9064305187
C       22.5446696650   -5.7734664208   38.6244264415
C       21.7433455010   -4.7449166814   39.4280384782
C       21.2504765353   -3.6888104805   38.4213325189
C       20.4240492103   -2.5647469635   39.0514682119