6    
Climbing Image - Chain 49 Image 15 Energy  -170.1452062131 (+25.993 kcal/mol) RMSGrad 0.025 eV/Ang
C       -0.0471480161   -0.9309580719   -1.2545093321
C       -0.6459635947   -0.4812290652   -0.2495153575
H       -1.5413008653   -0.5163453173    0.3346905385
H        0.9158035120   -0.7621938239   -1.7112060790
C        0.2474787305    1.0266433372    1.1633067815
N        1.0695768123    1.6633865415    1.7167559816
