6    
Climbing Image - Chain 40 Image 8 Energy  -170.0960202705 (+23.957 kcal/mol) RMSGrad 0.023 eV/Ang
C       -0.2502540760   -1.1215436247   -1.0212683228
C       -0.6601181191   -0.0558232086   -0.4780443556
H       -1.4759032373    0.6363310337   -0.4482730206
H        0.6354291606   -1.7339828527   -0.9486502110
C        0.4627750152    1.0280950350    1.0331266750
N        1.2871067469    1.2473917223    1.8649856230
