18   
Iteration 0 Energy -449.79401200
O        0.8559100000   -1.3823600000    0.3174600000
H        1.6752400000   -1.8477400000    0.4858000000
H        1.1176100000   -0.4684300000    0.2057500000
O       -1.0986300000   -0.8583700000    2.1731900000
H       -0.4031000000   -1.1460800000    1.5818400000
H       -1.0851100000    0.0968300000    2.1128200000
O        1.8644800000    1.2201800000    1.3331100000
H        2.0104700000    1.8829200000    0.6580600000
H        2.6420500000    0.6632600000    1.2947900000
O        0.4360100000    0.8591100000   -1.7990100000
H        1.2952700000    0.5943600000   -1.4706600000
H        0.1355600000    0.1112200000   -2.3153700000
O       -0.8009300000   -2.0911300000   -1.5730000000
H       -0.2203200000   -1.8297700000   -0.8582800000
H       -0.3280600000   -1.8458100000   -2.3682600000
O       -1.4967600000    2.2679100000   -0.3295400000
H       -0.8467900000    1.6940800000   -0.7351300000
H       -2.3252600000    1.7984600000   -0.4267000000
18   
Iteration 1 Energy -449.80519453
O        1.2392321225   -1.1064213040    0.2296838582
H        2.1843151524   -1.3273306120    0.2730592841
H        1.2345255004   -0.1538923218    0.0315124766
O       -0.4010849421   -0.9934187730    2.4636939965
H        0.1724774870   -1.0754921122    1.6827730898
H       -0.6982612136   -0.0681591435    2.4316373251
O        1.6851624821    1.7486944185    0.9548469106
H        1.5536331736    2.3873841355    0.2329559058
H        2.5861323086    1.4107640155    0.8077659857
O       -0.0804429866    0.8118487690   -1.8786643557
H        0.8734562152    0.7891909851   -1.6903916342
H       -0.2630672064   -0.0317793199   -2.3239278367
O       -0.4235802213   -2.5411237471   -1.2094185011
H        0.1590926011   -1.9169133105   -0.7360264501
H       -0.2475654347   -2.3587607037   -2.1487098658
O       -2.0725479382    1.7337755163   -0.0879654255
H       -1.3551647364    1.4030739985   -0.6544588616
H       -2.7186723638    1.0071995092   -0.0914959016
18   
Iteration 2 Energy -449.80619654
O        0.6949716549   -1.5082169892   -0.2334067308
H        1.4710720284   -2.0748330922   -0.3959634927
H        1.0623153980   -0.6036088595   -0.2205949166
O       -0.5203719110   -1.4060064452    2.2564419723
H       -0.1724221498   -1.4826578286    1.3476355831
H       -0.4079175718   -0.4582029401    2.4602515471
O        2.3047369763    0.6795815354    0.9975550126
H        2.3942588258    1.4896249392    0.4596758833
H        2.9866847952    0.0818782192    0.6332822283
O        0.1160865778    1.2498233178   -1.6324154354
H        0.9934076088    0.8223749564   -1.6170277261
H       -0.4228007621    0.6815088418   -2.2126251779
O       -1.5720295573   -1.4624915501   -1.5595003800
H       -0.6873441853   -1.5784813282   -1.1530124050
H       -1.3766937004   -1.0602123582   -2.4278591245
O       -0.9030750156    2.3541144775    0.7464271884
H       -0.7219406675    1.9321672348   -0.1142488860
H       -1.8112983443    2.0622778692    0.9522548599
18   
Iteration 3 Energy -449.80757349
O        0.9359971042   -1.3933050881   -0.0405064609
H        1.7965065310   -1.8438834048   -0.1259225616
H        1.1574941734   -0.4452329019   -0.1208544519
O       -0.3801404680   -1.2144036164    2.3957140394
H        0.0227087719   -1.3294034535    1.5136427665
H       -0.4250686074   -0.2441597612    2.4960452338
O        2.1424558402    1.1396234994    0.9708801472
H        2.1237431856    1.8928669185    0.3490147518
H        2.9221743433    0.6228256049    0.6863517677
O       -0.0165103766    1.0761069673   -1.7437585849
H        0.9159302638    0.7967376638   -1.6661894724
H       -0.4399765394    0.3714143305   -2.2681053962
O       -1.2114010268   -1.9799166703   -1.4618153672
H       -0.3864921150   -1.7797592585   -0.9700650052
H       -1.0241752880   -1.6610235051   -2.3664039821
O       -1.4303460239    2.2109968873    0.4357049397
H       -1.0029231294    1.7737717088   -0.3252061968
H       -2.2723366389    1.7253840793    0.5283438330
18   
Iteration 4 Energy -449.81088399
O        0.7339149078   -1.5015185799    0.0635504439
H        1.5420797321   -2.0621485390    0.1270018763
H        1.0889219243   -0.5796374687    0.0591043093
O       -1.0910654487   -1.0978001134    2.1330794929
H       -0.4305526291   -1.3258274592    1.4345664492
H       -0.9924592275   -0.1168605942    2.1918397135
O        2.0487586573    0.8354843208    1.3783311417
H        2.2548624958    1.6095177635    0.7994233146
H        2.8238814587    0.2389186915    1.2277981142
O        0.4305305994    1.1307066586   -1.6762794151
H        1.2994354948    0.7199724623   -1.4502237763
H        0.0267934473    0.4834837250   -2.2998531711
O       -1.1238400741   -1.7788811358   -1.8206751454
H       -0.4445868802   -1.7333459221   -1.0959318796
H       -0.6209667826   -1.4548165264   -2.6081923884
O       -1.2721889206    2.4301556257    0.1942285040
H       -0.6928643744    1.9110126229   -0.4129444139
H       -2.1530143802    2.0102244686    0.0420468303
18   
Iteration 5 Energy -449.81213613
O        0.9719303152   -1.3671170933   -0.0710927827
H        1.8639445703   -1.7787779282   -0.1602747880
H        1.1619034881   -0.3999680097   -0.1455969778
O       -0.3489831385   -1.2552276143    2.3901011588
H        0.0669741350   -1.3372027207    1.4958718018
H       -0.4303177672   -0.2730577484    2.4738379745
O        2.1008531032    1.1894948065    0.9716451190
H        2.0737614095    1.9745068769    0.3699499600
H        2.9354094885    0.7383156512    0.6857525638
O       -0.0772923796    1.1377470739   -1.7202350173
H        0.8742043710    0.8753813786   -1.6679863052
H       -0.4819598079    0.4197701586   -2.2619602818
O       -1.1499048606   -2.1192153888   -1.5033779380
H       -0.3396596087   -1.8362886741   -0.9988715552
H       -0.9479003110   -1.7922596022   -2.4162594134
O       -1.4887755728    2.1587000191    0.5311804521
H       -1.0495645710    1.7783709442   -0.2672808804
H       -2.3069828635    1.6054678706    0.5814669099
18   
Iteration 6 Energy -449.81482002
O        0.8735545984   -1.3944640043   -0.1408776656
H        1.7437046682   -1.8478858018   -0.1434212285
H        1.1233883033   -0.4459928887   -0.0792276095
O       -0.8382442665   -1.5173383375    2.0812924362
H       -0.2291841200   -1.4835352479    1.3057491979
H       -0.9085847751   -0.5544284544    2.2850669588
O        1.9846992386    0.9348264778    1.3247978536
H        2.0999750075    1.7961546475    0.8588778269
H        2.8626193237    0.5221082053    1.1411718149
O        0.1920935583    1.3670048294   -1.5675105453
H        1.1104878076    1.0288058547   -1.4625290959
H       -0.1762015308    0.7454684645   -2.2356281443
O       -1.0042040447   -1.8764875345   -1.9913299992
H       -0.3194625710   -1.7290079646   -1.2921596565
H       -0.5604087002   -1.4588011705   -2.7694595311
O       -1.4195162271    2.1394038561    0.6428803363
H       -0.8752485361    1.8841406457   -0.1368730442
H       -2.2318277340    1.6086684232    0.4660500957
18   
Iteration 7 Energy -449.81754921
O        0.6294917707   -1.4915796433   -0.1243873454
H        1.4189346540   -2.0739574264   -0.0418749645
H        1.0184111148   -0.5900344201   -0.0422762462
O       -1.2027567348   -1.1890572102    1.9989926903
H       -0.5615463096   -1.3707791502    1.2695928641
H       -1.0775858299   -0.2126755752    2.1016264945
O        1.9697421332    0.6569029890    1.4054525119
H        2.2513656686    1.5153217070    1.0017835491
H        2.8338618097    0.1735475235    1.3613883597
O        0.4665620912    1.3563220108   -1.5493860887
H        1.3240530086    0.8823040801   -1.4249770269
H        0.0450134167    0.7933761885   -2.2421150023
O       -1.1250876990   -1.7556095543   -2.1617297089
H       -0.5070080122   -1.7182353952   -1.3860117734
H       -0.5245605600   -1.4450175018   -2.8865432232
O       -1.0495045860    2.3094505106    0.6546804019
H       -0.5438401047    1.9657553705   -0.1231645959
H       -1.9379058314    1.9126054966    0.4758191039
18   
Iteration 8 Energy -449.81939408
O        0.7232475298   -1.3562002708   -0.4699561192
H        1.5544847966   -1.8873088168   -0.4743833813
H        1.0370000219   -0.4688366290   -0.1756743255
O       -1.1184855455   -1.8013711858    1.6461336167
H       -0.4784736146   -1.6121574488    0.9170605064
H       -1.1718127057   -0.9084475132    2.0713036479
O        1.8529052650    0.5173241342    1.5073511490
H        2.0507109997    1.4779628225    1.3637137799
H        2.7806793758    0.1645436025    1.4802109561
O        0.3135272480    1.7043259657   -1.2072379579
H        1.2218534727    1.3105623726   -1.2034954269
H       -0.0756794430    1.3037115652   -2.0235350903
O       -0.9110750304   -1.2650459974   -2.6346559513
H       -0.3578055238   -1.4062297998   -1.8219583669
H       -0.2683218212   -0.7775914806   -3.2116381189
O       -1.0949887359    1.6742766619    1.2246659960
H       -0.6913877764    1.8245298880    0.3322466864
H       -1.9387385131    1.2245921294    0.9667183997
18   
Iteration 9 Energy -449.82237706
O        0.4619363597   -1.5002954098   -0.0674209802
H        1.1604422971   -2.1591415440    0.1516699006
H        0.9254256032   -0.6393861750    0.0389855729
O       -1.4710967200   -0.7589171187    1.8656680703
H       -0.8391646891   -1.1648674986    1.2254877874
H       -1.1607443658    0.1786939424    1.8467842668
O        1.8226375732    0.5999485814    1.4668294468
H        2.1857199913    1.4667916283    1.1571891450
H        2.6753547576    0.1480456018    1.6928507249
O        0.6601976257    1.2797508532   -1.5394864362
H        1.4927745730    0.7682929247   -1.3853786619
H        0.2321503712    0.7586703475   -2.2616530872
O       -0.9775946354   -1.7539549181   -2.3716801637
H       -0.5242199241   -1.7234900386   -1.4924448785
H       -0.2136609886   -1.5800417438   -2.9757083002
O       -0.8856951918    2.1521321689    0.6532662250
H       -0.3459693674    1.8532729002   -0.1186218095
H       -1.7708532698    1.7931354982    0.4005331777
18   
Iteration 10 Energy -449.82069891
O        0.2195331983   -1.4944703762    0.1143119613
H        0.7567903138   -2.2200649723    0.5057428996
H        0.7821074946   -0.6969747020    0.2257686218
O       -1.5876065980   -0.0167232525    1.6094007229
H       -1.1537364603   -0.7941606499    1.1846228445
H       -0.9370779091    0.6903821423    1.3823202935
O        1.6248248873    0.5453984611    1.6458527158
H        2.1206819645    1.3545386258    1.3696732726
H        2.3579120434    0.0589714169    2.0995510813
O        0.9892861730    1.0657134071   -1.5034093089
H        1.7420041791    0.5004120890   -1.2031030668
H        0.6397077252    0.5413741744   -2.2625362296
O       -0.8214185102   -1.8335665288   -2.3877678039
H       -0.5689720513   -1.7609341734   -1.4347140967
H        0.0723920484   -1.8564177389   -2.8098081885
O       -0.9131094595    2.1143694485    0.2661790391
H       -0.1904521511    1.7323019531   -0.2903663462
H       -1.7052268881    1.7884906758   -0.2248484116
18   
Iteration 11 Energy -449.82519465
O        0.4734842343   -1.4641460129   -0.0618206153
H        1.1894219917   -2.1104155494    0.1343011339
H        0.9317875595   -0.5966067634   -0.0066331347
O       -1.0862624987   -0.5605202362    2.1101377617
H       -0.6960266951   -1.0505074758    1.3467845978
H       -0.7219729598    0.3414858322    1.9440313344
O        1.9027377919    0.6904652561    1.2850213539
H        2.2029460719    1.5788775964    0.9732322832
H        2.7814228714    0.3019068235    1.5226513721
O        0.4881763795    1.2642454382   -1.5942565422
H        1.3573978049    0.8019356342   -1.5114784193
H        0.0443747618    0.7365275737   -2.2997850485
O       -1.1278475105   -1.8377612017   -2.2566881605
H       -0.5956366407   -1.7482638264   -1.4279784157
H       -0.4232667879   -1.7085125295   -2.9381845650
O       -0.9801487974    1.8823852215    0.7139829605
H       -0.4650322628    1.7148031864   -0.1120486379
H       -1.8479153139    1.4827410328    0.4656007417
18   
Iteration 12 Energy -449.82624675
O        0.4676402039   -1.4689933345   -0.1599658196
H        1.1326527289   -2.1401012068    0.1153355243
H        0.9109938298   -0.6243941406    0.0822454188
O       -1.6949625966   -0.8147185132    1.5888446885
H       -0.9606068562   -1.1792743046    1.0373720882
H       -1.4026451689    0.1245054780    1.6760166069
O        1.6209112799    0.4981325902    1.6368948378
H        1.9538876475    1.4192794993    1.5056585158
H        2.4280829730    0.0852736781    2.0328461897
O        0.7835069597    1.4303021273   -1.3193079687
H        1.6190083730    0.9304297185   -1.1563688073
H        0.4565524507    1.0190392115   -2.1535482494
O       -0.5473992714   -1.5333001641   -2.6944981966
H       -0.3076766156   -1.5980014217   -1.7365797887
H        0.3414782464   -1.3584188818   -3.0927012177
O       -1.1037783776    1.7565198529    0.7123662928
H       -0.3935742228    1.7347480107    0.0250006772
H       -1.8764315836    1.4376118006    0.1872592081
18   
Iteration 13 Energy -449.82658843
O        0.3645379428   -1.5178944873   -0.1246058494
H        0.9402055145   -2.2389847584    0.2176216854
H        0.8319089137   -0.7126280199    0.1989960522
O       -1.9642294482   -0.7163266134    1.3151315222
H       -1.1746713357   -1.1543555739    0.9164792540
H       -1.6087586552    0.1953202846    1.4525154655
O        1.4260295304    0.3360950014    1.8314803608
H        1.8206958200    1.2396144931    1.7683160516
H        2.1391607861   -0.1327004537    2.3305487858
O        1.0425457707    1.3908481848   -1.1732920490
H        1.7971500231    0.8128057684   -0.9083644427
H        0.8136028416    1.0243851304   -2.0589598579
O       -0.2383446947   -1.4139553664   -2.7686065962
H       -0.2048188378   -1.5631180380   -1.7895980362
H        0.7253730111   -1.3047439820   -2.9699248942
O       -1.1722686314    1.9436819757    0.4117097217
H       -0.3059858839    1.8094561882   -0.0496090499
H       -1.8044926671    1.7211402665   -0.3129681237
18   
Iteration 14 Energy -449.82751914
O        0.4018788612   -1.5024939907   -0.1495670145
H        1.0400692598   -2.2020542589    0.1210055405
H        0.8830988253   -0.6801220573    0.0997119202
O       -1.6697665236   -0.7547153498    1.6767835210
H       -0.9967242248   -1.1661057074    1.0843799928
H       -1.3122445363    0.1643776601    1.7352811158
O        1.6619836360    0.4220795620    1.6094782727
H        2.0121230912    1.3367529823    1.4805600388
H        2.4507192778   -0.0095124973    2.0209046636
O        0.8302644883    1.3959345399   -1.3151820287
H        1.6373953973    0.8506263050   -1.1567370083
H        0.4873627136    1.0054408796   -2.1533897289
O       -0.6108130956   -1.4754577707   -2.6836701199
H       -0.3729170886   -1.5862945004   -1.7285531615
H        0.2869345169   -1.3440134290   -3.0797443756
O       -1.0902662358    1.8695954626    0.6461487733
H       -0.3499737742    1.7749822835   -0.0037636478
H       -1.8614845883    1.6196198865    0.0832232466
18   
Iteration 15 Energy -449.82922340
O        0.4514140088   -1.4843741721   -0.1721871597
H        1.1411026117   -2.1520506180    0.0486861877
H        0.9151908789   -0.6387538120    0.0254391853
O       -1.3642362547   -0.8214341205    1.9493104468
H       -0.8283410193   -1.1908699474    1.2072532700
H       -1.0515048131    0.1154609810    1.9415112116
O        1.7924023106    0.5600919685    1.3566589070
H        2.0506093448    1.4984422077    1.1901033251
H        2.6400523031    0.2181126000    1.7328642294
O        0.5765912409    1.3916313779   -1.4055064709
H        1.4299058832    0.8980588535   -1.3602730530
H        0.1420660403    0.9731377390   -2.1858318166
O       -0.7804214174   -1.5475850219   -2.6120237848
H       -0.4359391668   -1.6143927379   -1.6859176343
H        0.0633227268   -1.4030215798   -3.1089468089
O       -1.0102170242    1.7400690603    0.8516832400
H       -0.4296327321    1.7075237953    0.0534138473
H       -1.8747249215    1.4685934265    0.4606328780
18   
Iteration 16 Energy -449.83149371
O        0.4085580797   -1.5043783373   -0.0797843741
H        1.0921510227   -2.1731707431    0.1592379559
H        0.8922634272   -0.6568127432    0.0514625882
O       -1.0742788328   -0.6525988991    2.1928437592
H       -0.7888198701   -1.1176377659    1.3710577792
H       -0.7194542152    0.2506751010    2.0085150034
O        1.8573646756    0.6767547901    1.0933243785
H        2.0565502913    1.6117453495    0.8453920202
H        2.7321090830    0.4334647059    1.4848463254
O        0.3978986090    1.2371094248   -1.5259569345
H        1.2525699235    0.7420364126   -1.5450114254
H       -0.1306485176    0.7480135944   -2.2018996845
O       -0.8839132345   -1.6892223690   -2.4841454024
H       -0.5135372720   -1.6974274882   -1.5654027811
H       -0.0493735829   -1.6193052267   -3.0120317274
O       -0.8770783488    1.8494212868    0.8625687521
H       -0.4222690492    1.6852114854   -0.0000261551
H       -1.8024521889    1.5947614220    0.6318799223
18   
Iteration 17 Energy -449.83627419
O        0.4419221638   -1.4904811712    0.0542718331
H        1.0962772530   -2.1498501876    0.3869523390
H        0.9079017208   -0.6363974807    0.2031627134
O       -1.2568819790   -0.5499811387    2.1760553139
H       -0.8665928781   -1.0593459921    1.4252547590
H       -0.9235899395    0.3551036818    1.9587425035
O        1.7844630959    0.8156551252    0.9753240266
H        1.8856727508    1.7465740959    0.6624566160
H        2.6385057593    0.7206201345    1.4643628583
O        0.3313650846    1.0609010996   -1.5594610635
H        1.2037366561    0.5974342231   -1.5726549272
H       -0.1956074508    0.4829526727   -2.1633286937
O       -0.4654205512   -1.7384730760   -2.4986713600
H       -0.2888167484   -1.7163765059   -1.5240124912
H        0.4623462165   -1.7346002999   -2.8435942963
O       -0.9735032557    1.8393325942    0.7432016398
H       -0.4666892842    1.5927851361   -0.0727481076
H       -1.8874486139    1.5827870893    0.4715563369
18   
Iteration 18 Energy -449.83818783
O        0.4697121351   -1.4273269788    0.2109166576
H        1.0362597801   -2.0878643841    0.6756487723
H        0.8866480690   -0.5709223586    0.4554242540
O       -1.7735766285   -0.4992553295    1.8309216885
H       -1.0876543997   -1.0029335951    1.3266209642
H       -1.4607626004    0.4272823323    1.6751485601
O        1.6167418690    0.9352854587    1.0493933154
H        1.6607194523    1.8299906047    0.6361559004
H        2.3858735052    0.9468235791    1.6700490881
O        0.4206359745    0.8560850802   -1.5555481304
H        1.3144075015    0.4495649769   -1.4526963572
H       -0.0135595703    0.1705151819   -2.1195661775
O        0.3334580117   -1.6324571347   -2.4469541870
H        0.1263999751   -1.6324664679   -1.4780851917
H        1.3214219586   -1.6732203932   -2.4163339759
O       -1.2216608126    1.7519151383    0.4401881882
H       -0.5401493935    1.4483605395   -0.2186012891
H       -2.0472748270    1.4292637505    0.0041879201
18   
Iteration 19 Energy -449.84155937
O        0.4014683982   -1.4821738054    0.0349054491
H        0.9716451469   -2.2001179899    0.3948327923
H        0.8985259728   -0.6740092431    0.3050843595
O       -1.4935070164   -0.5630190870    2.0409286774
H       -1.0002946387   -1.0621744177    1.3439476948
H       -1.1427828771    0.3488555464    1.8857159810
O        1.7682990100    0.6798707832    1.0374922061
H        1.8431627817    1.6242376488    0.7666979567
H        2.5695536783    0.5690857932    1.6032299679
O        0.4049382703    1.0576575752   -1.4916995264
H        1.2619258247    0.5700179957   -1.4922015174
H       -0.1108665566    0.4921570668   -2.1150073113
O       -0.1785012556   -1.4562168151   -2.5890004433
H       -0.1604753874   -1.5725253578   -1.6068463902
H        0.7811305137   -1.5597764494   -2.8005353867
O       -1.0354473141    1.7806466583    0.7130255861
H       -0.4349102009    1.5634046137   -0.0482050272
H       -1.9162243498    1.6027194842    0.3045049317
18   
Iteration 20 Energy -449.84294827
O        0.2851175832   -1.4865785710   -0.0492002975
H        0.7276521478   -2.2967755824    0.2967410575
H        0.8510280391   -0.7737593818    0.3364291759
O       -1.6000362787   -0.5067873026    1.9509338854
H       -1.1484273684   -1.0388864742    1.2530018731
H       -1.1707779815    0.3698240110    1.7907444050
O        1.7965265114    0.3906159948    1.1029805114
H        1.9399554708    1.3626591612    1.0389442760
H        2.5100648084    0.2661929880    1.7723609254
O        0.5628202493    1.0979885901   -1.4383030019
H        1.3727603003    0.5357334893   -1.4321418042
H        0.0210281884    0.5906320823   -2.0927285768
O       -0.2547415082   -1.1269422524   -2.6491147576
H       -0.2477335664   -1.4140000903   -1.7026886682
H        0.6536733724   -1.3947864982   -2.9297935744
O       -0.8720861895    1.7841416300    0.7522068931
H       -0.2566552238    1.5850447328   -0.0008651313
H       -1.7425285545    1.7743234736    0.2873628090
18   
Iteration 21 Energy -449.83053168
O        0.1411088147   -1.4473775942   -0.3047935526
H        0.2328622298   -2.3965053911   -0.0531956732
H        0.5341039344   -1.0118147455    0.4967498452
O       -2.4777966188   -0.3958821873    0.3408196293
H       -1.6826361163   -0.9702435572    0.3224631158
H       -2.0293331796    0.4566627045    0.5695462003
O        1.0458099698   -0.4205844903    1.9091515893
H        1.2868991005    0.4997171683    2.1593232940
H        1.2963093187   -0.9763262429    2.6826561748
O        1.4749118498    1.1877329578   -0.8206496249
H        2.0174938625    0.4274059200   -0.5117309064
H        1.2491761334    0.8473295509   -1.7286690944
O        0.5637840066   -0.2450427769   -2.4618629523
H        0.1250716360   -0.9590307076   -1.9354793519
H        1.4539597090   -0.6258933971   -2.6486511828
O       -0.7590454442    1.8921167925    0.4735459445
H        0.1531289445    1.6805490116    0.1608208878
H       -1.1981681508    2.1758269846   -0.3631743424
18   
Iteration 22 Energy -449.84601883
O        0.1196373702   -1.4919016335   -0.1749586212
H        0.3440978807   -2.3942177008    0.1529722787
H        0.6638365180   -0.9294686216    0.4336311299
O       -2.1976375130   -0.3701466203    1.1931653471
H       -1.5228834478   -0.9759747895    0.8126877302
H       -1.6574331080    0.4586009297    1.2216706711
O        1.4933816683   -0.0810105737    1.5901928946
H        1.7536155514    0.8677557415    1.6311262507
H        1.9902624433   -0.4858113957    2.3394296987
O        1.1049236051    1.1418929330   -1.1857852451
H        1.7736970673    0.4415653441   -1.0075530505
H        0.6790116758    0.7461267572   -1.9908486764
O        0.1227771383   -0.6647397807   -2.6513451240
H       -0.1259534814   -1.1884954923   -1.8489758894
H        1.0088023511   -1.0396120112   -2.8717568023
O       -0.7324065069    1.9172938739    0.6304484413
H        0.0367920249    1.6710923231    0.0600635505
H       -1.4268812376    2.0956907167   -0.0472945839
18   
Iteration 23 Energy -449.84802065
O        0.2564117675   -1.5136634781   -0.0662523303
H        0.6642545055   -2.3493458609    0.2627819872
H        0.8554621686   -0.8188932535    0.3127457246
O       -1.4721810351   -0.4120295010    1.9653497742
H       -1.1234843958   -1.0062171019    1.2571989258
H       -1.0254301232    0.4327790813    1.7089988551
O        1.8201737070    0.2441927077    1.1322434915
H        1.9263969964    1.2125220305    0.9905546512
H        2.5463678425   -0.0244901834    1.7416816918
O        0.5820215308    1.1242966857   -1.4737195997
H        1.3585618547    0.5164569034   -1.4596714772
H       -0.0204181204    0.5888602543   -2.0522809719
O       -0.5273899194   -1.0755629972   -2.5877892000
H       -0.3858101220   -1.4036647079   -1.6583699256
H        0.2881391861   -1.4059786230   -3.0354979514
O       -0.6329330891    1.9387966087    0.8052096041
H       -0.1343310549    1.6697624347   -0.0020635664
H       -1.5481716994    2.0008190006    0.4457503171
18   
Iteration 24 Energy -449.84910099
O        0.5401040964   -1.4329600434   -0.2114533683
H        1.1180123539   -2.2011289305    0.0010349611
H        1.0438305750   -0.6600962405    0.1493411996
O       -0.8571982823   -0.9145571484    2.2578923146
H       -0.6835954445   -1.2187278841    1.3311366050
H       -0.7283595181    0.0626979625    2.1626522852
O        1.8873661262    0.5010500626    0.9437760783
H        1.8103145680    1.4801053536    0.9550109413
H        2.6933269684    0.3748957967    1.4927688717
O        0.1691914473    1.2581156348   -1.4887643202
H        1.0585527632    0.8398446932   -1.5772548994
H       -0.3608860035    0.6185401736   -2.0291219988
O       -0.6953751892   -0.9940977750   -2.5561848641
H       -0.3235324756   -1.3246588220   -1.6954146088
H        0.0606370543   -1.1684299729   -3.1665405684
O       -0.9312393482    1.5361445703    0.9555045644
H       -0.4978384996    1.5341578185    0.0642019949
H       -1.8756711918    1.4277447508    0.6982848118
18   
Iteration 25 Energy -449.85096347
O        0.3745220702   -1.5137266460   -0.2329077335
H        0.6950513783   -2.3950256811    0.0634680051
H        0.8913605894   -0.8961539721    0.3464634558
O       -1.7693757199   -0.6350310785    1.5727209465
H       -1.1479211593   -1.1209756318    0.9784870921
H       -1.4002098949    0.2797406279    1.4948607284
O        1.6768121047   -0.0003259977    1.4086528072
H        1.7237036560    0.9655197537    1.5768554893
H        2.2563191607   -0.2928013456    2.1468358311
O        0.7207377788    1.2720966738   -1.3213891577
H        1.5183775980    0.6990242734   -1.2120176908
H        0.1995175007    0.7204258029   -1.9658469601
O       -0.1224165760   -0.6511513792   -2.6571175941
H       -0.1067275634   -1.1914509794   -1.8274187112
H        0.6535395632   -1.0119275149   -3.1481971662
O       -0.8584190910    1.8311715335    0.7709381013
H       -0.1954856461    1.6874356608    0.0464370086
H       -1.6817457496    1.9717959003    0.2460455482
18   
Iteration 26 Energy -449.85312688
O        0.3427193010   -1.5330410359   -0.1342556967
H        0.6224683172   -2.4146339007    0.2044857989
H        0.8671158590   -0.9091251077    0.4384160801
O       -1.8861990594   -0.3666612949    1.3203489269
H       -1.2427886494   -0.9942466872    0.9131020683
H       -1.4584427635    0.4885706133    1.0700068312
O        1.5979778031   -0.0885342943    1.5458854528
H        1.6124001082    0.8816938930    1.7020717300
H        2.1047796643   -0.4327315053    2.3153375453
O        0.9438935095    1.2479785835   -1.3374512648
H        1.6975032627    0.6618061700   -1.0945849181
H        0.4611124191    0.6129476977   -1.9376574907
O       -0.2448272113   -0.7878861469   -2.5638465820
H       -0.1737506637   -1.2667200357   -1.6971103125
H        0.4421306313   -1.2371043409   -3.1095622896
O       -0.7159627050    1.9512188235    0.6314525867
H       -0.0452735730    1.7248138865   -0.0554568064
H       -1.4972162502    2.1802946820    0.0756883406
18   
Iteration 27 Energy -449.85337499
O        0.4988896191   -1.4949910201   -0.4926167672
H        0.9591255166   -2.3558021260   -0.3632153103
H        1.0156392591   -0.8785039610    0.0942028674
O       -1.3453211335   -1.1444541076    1.7707197499
H       -0.8341729073   -1.3645551791    0.9587967379
H       -1.2466389946   -0.1601720023    1.7644856786
O        1.8083799897   -0.0956048929    1.2040542642
H        1.6428513629    0.8446409518    1.4450102195
H        2.5192959773   -0.4588364899    1.7811500295
O        0.4928509578    1.5767896147   -1.2441537573
H        1.3305640057    1.0604992053   -1.2230445665
H       -0.0559760464    0.9976617134   -1.8445274747
O       -0.5454453368   -0.3813338797   -2.5728758278
H       -0.2491429964   -1.0440970105   -1.8982271785
H        0.0355105190   -0.5962272487   -3.3391524987
O       -0.7024856093    1.6118499384    1.1119542704
H       -0.2697559764    1.7161686004    0.2281084243
H       -1.6265282063    1.8856078938    0.9062011394
18   
Iteration 28 Energy -449.85593338
O        0.3720573959   -1.5643079807   -0.3086700556
H        0.7464760785   -2.4470010842   -0.0872641724
H        0.9277223234   -0.9397751949    0.2295608255
O       -1.4034770115   -0.7003363375    1.8312183752
H       -0.9759441619   -1.1769582900    1.0810915280
H       -1.1169247892    0.2241195098    1.6259134834
O        1.7692911742   -0.1006028928    1.2605286526
H        1.6811483269    0.8671494559    1.4119661737
H        2.4333156660   -0.4430160670    1.9008298824
O        0.6222781131    1.3798096564   -1.3831174408
H        1.4177035748    0.8077884375   -1.2871824437
H        0.0435080211    0.7758826944   -1.9279370720
O       -0.5280124226   -0.5948914270   -2.5351807770
H       -0.3039167227   -1.1856441493   -1.7704895273
H        0.0572512843   -0.9484455352   -3.2448094448
O       -0.6508352237    1.8551669571    0.8916638759
H       -0.1441601860    1.7390267574    0.0483443964
H       -1.5198414406    2.1706754901    0.5504037404
18   
Iteration 29 Energy -449.85602907
O        0.4055933969   -1.5186407959   -0.2179234311
H        0.8212304875   -2.3731465491    0.0261984953
H        0.9933478117   -0.8513196323    0.2239972285
O       -1.0544238366   -0.5758832958    2.0605536562
H       -0.8681608461   -1.0922176039    1.2378833836
H       -0.8273832025    0.3350735394    1.7474414957
O        1.9142326241    0.1173413136    1.0497779850
H        1.8304035780    1.0714555207    1.2566154299
H        2.6016781659   -0.0832009569    1.7192857765
O        0.4189377939    1.2843133477   -1.5658876743
H        1.2565908875    0.7691893487   -1.4932290865