18   
Iteration 0 Energy -449.79401200
O        0.8559100000   -1.3823600000    0.3174600000
H        1.6752400000   -1.8477400000    0.4858000000
H        1.1176100000   -0.4684300000    0.2057500000
O       -1.0986300000   -0.8583700000    2.1731900000
H       -0.4031000000   -1.1460800000    1.5818400000
H       -1.0851100000    0.0968300000    2.1128200000
O        1.8644800000    1.2201800000    1.3331100000
H        2.0104700000    1.8829200000    0.6580600000
H        2.6420500000    0.6632600000    1.2947900000
O        0.4360100000    0.8591100000   -1.7990100000
H        1.2952700000    0.5943600000   -1.4706600000
H        0.1355600000    0.1112200000   -2.3153700000
O       -0.8009300000   -2.0911300000   -1.5730000000
H       -0.2203200000   -1.8297700000   -0.8582800000
H       -0.3280600000   -1.8458100000   -2.3682600000
O       -1.4967600000    2.2679100000   -0.3295400000
H       -0.8467900000    1.6940800000   -0.7351300000
H       -2.3252600000    1.7984600000   -0.4267000000
18   
Iteration 1 Energy -449.81769941
O        0.8853956278   -1.3064951407    0.3827113827
H        1.7007302628   -1.8558193384    0.4977728338
H        1.2210020895   -0.3778348428    0.4095687121
O       -1.1537123868   -0.8693233651    2.2379947704
H       -0.4428547297   -1.1590218177    1.6109324295
H       -1.0706595579    0.1118969226    2.1178221601
O        1.8437535716    1.1326106633    1.2961660239
H        1.9880820415    1.8638689344    0.6389075176
H        2.7475338918    0.7209829060    1.2780413477
O        0.4195186257    0.9271768817   -1.7914164108
H        1.3306231490    0.6074269804   -1.5672618900
H        0.0929015226    0.1470795022   -2.3071822687
O       -0.8951536896   -2.1572761613   -1.6671789189
H       -0.3062350349   -1.9292231309   -0.8990286464
H       -0.3025194282   -1.9073706940   -2.4231774434
O       -1.4825175028    2.2968810549   -0.3099070860
H       -0.8400757687    1.7148769301   -0.7942130407
H       -2.3081726854    1.7582037157   -0.4236814751
18   
Iteration 2 Energy -449.82580353
O        0.8492239147   -1.2713312757    0.3613034490
H        1.6681373243   -1.8216716446    0.4679488943
H        1.1931813755   -0.3681902353    0.5977501027
O       -1.1661981035   -0.8676976758    2.2635086364
H       -0.4630214286   -1.1916892249    1.6356290237
H       -1.0768441326    0.1171869453    2.1338562145
O        1.8971396812    1.0181279397    1.2027920499
H        1.9259995980    1.8163453582    0.6051195382
H        2.8692284101    0.8145676641    1.2872262223
O        0.4277191554    0.9377383367   -1.8242669035
H        1.3497215734    0.6100013758   -1.6429687290
H        0.0480472868    0.1704534085   -2.3282249120
O       -0.8948892907   -2.1650037326   -1.6647450837
H       -0.3124648317   -1.9173587412   -0.8919444780
H       -0.2706378117   -1.9880485483   -2.4237683002
O       -1.5004442997    2.3051085122   -0.2815977047
H       -0.8151057138    1.7927699226   -0.7930787856
H       -2.3011527113    1.7273316157   -0.4176692392
18   
Iteration 3 Energy -449.82842538
O        0.8346666151   -1.2014813547    0.3352796907
H        1.5879941404   -1.8211334312    0.4898467984
H        1.1913768694   -0.3424825582    0.7011827899
O       -1.1792708795   -0.8846724843    2.2929798448
H       -0.5087531765   -1.2179252119    1.6430826716
H       -1.0801573147    0.0914497525    2.1506274567
O        1.9926602591    0.8951601450    1.1113592933
H        1.8361937390    1.7102648073    0.5753661545
H        2.9600071026    0.9597414983    1.2992910394
O        0.4139743437    0.9683627647   -1.8499590312
H        1.3208067502    0.5949139699   -1.7233678674
H       -0.0151173083    0.2181741855   -2.3267805864
O       -0.8732160438   -2.1461073265   -1.6508262410
H       -0.3071669055   -1.8458673291   -0.8921422345
H       -0.2157622826   -2.1064648745   -2.3937832721
O       -1.4837158130    2.3007584932   -0.2555972885
H       -0.7948192739    1.8499359580   -0.8065292974
H       -2.2520608298    1.6960129962   -0.4131599298
18   
Iteration 4 Energy -449.83065568
O        0.7854675762   -1.2653290113    0.2970962237
H        1.4878840275   -1.9072255585    0.5324105493
H        1.1923803913   -0.4181512877    0.6245286959
O       -1.1712221685   -0.9085927919    2.2937760594
H       -0.5295806691   -1.2227811022    1.6145558244
H       -1.0931448396    0.0655117038    2.1674942035
O        2.0594942487    0.9523550008    1.1120880637
H        1.8173052102    1.7459778496    0.5961664188
H        3.0055899723    1.0786659111    1.3274658225
O        0.3949816220    0.9792656655   -1.8719493840
H        1.2867958148    0.5818311403   -1.7546491342
H       -0.0724952769    0.2441446678   -2.3252139774
O       -0.8393124160   -2.1052169486   -1.6307213481
H       -0.2842782714   -1.7652110728   -0.8886453030
H       -0.1693744677   -2.1819563362   -2.3501977251
O       -1.4569225522    2.2881389985   -0.2400319171
H       -0.7703634702    1.8742763328   -0.8119048515
H       -2.2155647429    1.6829368388   -0.4053982328
18   
Iteration 5 Energy -449.83322256
O        0.8120239870   -1.2493299578    0.3404635177
H        1.4443038622   -1.9511787640    0.6021864933
H        1.3052403075   -0.4293648908    0.5844044159
O       -1.1622250515   -0.9250357342    2.2859243794
H       -0.5406943468   -1.2208991454    1.5799644429
H       -1.1114810673    0.0546023084    2.1845987472
O        2.0213049336    0.9692405339    1.0983543467
H        1.8184981154    1.8007744527    0.6239370926
H        2.9732828664    1.0731792434    1.3127779604
O        0.3713590645    0.9683989193   -1.8928169767
H        1.2653294917    0.5790131226   -1.7551012689
H       -0.1132595052    0.2332285256   -2.3313016111
O       -0.8368760317   -2.0721623486   -1.6652389377
H       -0.3018574507   -1.7391654003   -0.9056356242
H       -0.1377524578   -2.2113393140   -2.3456517154
O       -1.4336477240    2.2781637008   -0.2279699644
H       -0.7442410179    1.8769033500   -0.8070437867
H       -2.2016679889    1.6836113982   -0.3949815248
18   
Iteration 6 Energy -449.83617501
O        0.8170718300   -1.2607178908    0.3739480562
H        1.3945156445   -1.9905483448    0.6906467343
H        1.3370836234   -0.4458435183    0.5794993901
O       -1.1444045108   -0.9597721318    2.2761426246
H       -0.5354665414   -1.1740686347    1.5277177820
H       -1.1497796538    0.0266558695    2.2166547340
O        2.0280773033    0.9592906325    1.0519188944
H        1.7819884566    1.8242311354    0.6490152300
H        2.9710029487    1.1162947028    1.2946858710
O        0.3148683406    0.9672551745   -1.9330528328
H        1.2043821744    0.5658348373   -1.7856201806
H       -0.1809794369    0.2125297894   -2.3293638691
O       -0.8028193421   -1.9876729187   -1.7048592001
H       -0.2777762682   -1.6840226327   -0.9227477362
H       -0.0799509651   -2.2744988811   -2.3145657421
O       -1.3807675830    2.2677708928   -0.1982700708
H       -0.7117499881    1.8723193321   -0.8092627749
H       -2.1576560506    1.6836025856   -0.3756169279
18   
Iteration 7 Energy -449.83895303
O        0.8407895125   -1.3049283625    0.4690400171
H        1.1332901488   -2.0615662483    1.0344447555
H        1.5000966485   -0.5736977024    0.5906350977
O       -1.0738255148   -1.0786681288    2.2347055618
H       -0.5667528427   -0.9970808589    1.3799229639
H       -1.3152781509   -0.1218445091    2.3609359914
O        2.1283658401    0.9755592159    0.8089695995
H        1.5808683668    1.8107702058    0.7293994737
H        2.9395078553    1.3457863334    1.2572738115
O        0.0300604474    0.9053487962   -2.1498135241
H        0.9129099071    0.4967323054   -1.9492663025
H       -0.5131095454    0.0827105410   -2.2821123729
O       -0.4314909403   -1.5946174432   -1.9259262962
H       -0.0626274746   -1.4375529647   -1.0118886233
H       -0.0296558762   -2.4850501952   -2.1172790640
O       -1.1183798564    2.2002429782   -0.0613612836
H       -0.5725865329    1.8606831263   -0.8246184601
H       -1.9545420352    1.6958129070   -0.2561913840
18   
Iteration 8 Energy -449.84458502
O        0.8373257743   -1.2763667921    0.3945944872
H        1.3132612764   -2.0115188477    0.8485560134
H        1.3893693693   -0.4748786762    0.5873473624
O       -1.1388239637   -1.0126343270    2.2806528709
H       -0.5465748015   -1.0875079338    1.4874123850
H       -1.2717485205   -0.0305329902    2.2975666547
O        2.0741760800    0.9315522523    0.9055315717
H        1.6506998924    1.8067906319    0.7044835934
H        2.9581160827    1.2208030501    1.2487781015
O        0.1452953427    0.9710553014   -2.0600725750
H        1.0378959380    0.5843082075   -1.8779367397
H       -0.3271162040    0.1418156282   -2.3250146198
O       -0.6281723206   -1.7575463801   -1.7783598124
H       -0.1424258137   -1.6350446788   -0.9204592436
H       -0.0329125562   -2.4045804413   -2.2360985861
O       -1.2028472434    2.2195177447   -0.1335358469
H       -0.6447780570    1.8200882272   -0.8528460297
H       -2.0431003078    1.7133200215   -0.2837296169
18   
Iteration 9 Energy -449.85006200
O        0.8500068890   -1.3052357317    0.4212496713
H        1.3380835136   -2.0033340973    0.9168350251
H        1.3726267496   -0.4747042431    0.5718993474
O       -1.1552672572   -1.0183464988    2.2932638024
H       -0.5598273291   -1.0675815522    1.5021147126
H       -1.3218375519   -0.0427811231    2.3144424101
O        2.0887821584    0.9331320634    0.8414337774
H        1.5906265018    1.7823002534    0.7292923018
H        2.9426427000    1.2497003400    1.2285384832
O        0.0685558743    0.9312732551   -2.1361961700
H        0.9903479966    0.6405680728   -1.9271635430
H       -0.3450599744    0.0448550906   -2.2980585970
O       -0.5409486324   -1.6496522333   -1.8042048535
H       -0.0784658653   -1.6196360137   -0.9256933311
H       -0.0628537709   -2.3998957259   -2.2382427435
O       -1.1166538499    2.1890576699   -0.1085161787
H       -0.6362147666    1.7836630036   -0.8794399869
H       -1.9969034242    1.7452574675   -0.2146841613
18   
Iteration 10 Energy -449.77002006
O        0.8519903222   -1.3827824909    0.5484115986
H        1.4295816266   -1.9395289427    1.1117623170
H        1.3086384784   -0.4986885106    0.5646070295
O       -1.2228186356   -1.0164955660    2.3403397086
H       -0.5726035971   -1.0509471884    1.5987472308
H       -1.4867005930   -0.0671149598    2.3127031021
O        2.0571812381    0.9939854311    0.5929178746
H        1.3577841622    1.6533109126    0.7781785532
H        2.8183737923    1.2886090369    1.1366333940
O       -0.2147167714    0.6499561343   -2.3379837583
H        0.7359753701    0.8934665785   -2.2649746919
H       -0.1846843945   -0.2692853190   -1.9458128444
O       -0.1903563065   -1.3079253813   -1.8498388961
H        0.1104225755   -1.5490455763   -0.9320228076
H       -0.2042123381   -2.1696304421   -2.3234415516
O       -0.7536926714    2.0003626889   -0.1032186771
H       -0.7003200271    1.6244049715   -1.0245333292
H       -1.7122022905    1.8659886201    0.0843957011
18   
Iteration 11 Energy -449.84363171
O        0.8417579996   -1.3464417217    0.4904961219
H        1.4082066052   -1.9650701593    0.9992865900
H        1.3175625197   -0.4771230909    0.5708202749
O       -1.1930473301   -1.0077110433    2.3177669084
H       -0.5573406941   -1.0795603120    1.5652407113
H       -1.3924640758   -0.0416441517    2.2951545645
O        2.0620118319    0.9493310242    0.7228662576
H        1.4769255370    1.7356928796    0.7618245923
H        2.8825597811    1.2477171066    1.1727000667
O       -0.0673553310    0.7780763784   -2.2406294530
H        0.9037176311    0.8077183481   -2.0774772414
H       -0.2463620855   -0.1912892074   -2.0991736285
O       -0.4008242331   -1.4512767865   -1.8268192736
H        0.0199749572   -1.5743101852   -0.9346493075
H       -0.1348524857   -2.2719917829   -2.3025274487
O       -0.9394012530    2.1020384420   -0.1023941526
H       -0.6689703432    1.6832954630   -0.9627751692
H       -1.8844590790    1.8211887965   -0.0628404520
18   
Iteration 12 Energy -449.85565429
O        0.8233484098   -1.3402642849    0.4805350683
H        1.3777065315   -1.9770107542    0.9791271442
H        1.3161016886   -0.4812452395    0.5738909401
O       -1.1864259161   -1.0084492368    2.3149227221
H       -0.5522151200   -1.0969584207    1.5623848549
H       -1.3768170198   -0.0405564173    2.2840846950
O        2.0688066054    0.9519263258    0.7346157269
H        1.4805305719    1.7351783685    0.7444877567
H        2.8835183616    1.2591140521    1.1868202370
O       -0.0085046705    0.9196287485   -2.2491649540
H        0.9551188578    0.8322148305   -2.0718123307
H       -0.3132343522   -0.0270148928   -2.1785586068
O       -0.4321802931   -1.5891046273   -1.7772002407
H        0.0078623457   -1.6453467813   -0.8899746505
H       -0.1160743471   -2.3790646408   -2.2665801934
O       -0.9539465105    2.1049705759   -0.1035541344
H       -0.6503806182    1.6894266153   -0.9542695762
H       -1.8955745719    1.8111957766   -0.0828844965
18   
Iteration 13 Energy -449.85698943
O        0.8171154453   -1.3325915499    0.4918121002
H        1.4016130428   -1.9697180354    0.9571790804
H        1.3100578147   -0.4726295009    0.5774727065
O       -1.2009450299   -0.9978774299    2.3265609555
H       -0.5430256456   -1.1184689688    1.5977213713
H       -1.3778875874   -0.0292050413    2.2534158168
O        2.0089787107    0.9350246356    0.7253346911
H        1.4437966344    1.7386130269    0.7418191407
H        2.8378482258    1.2295038442    1.1649006961
O       -0.0333208145    0.9003144614   -2.2637621852
H        0.9356150209    0.8841620117   -2.0841111124
H       -0.2462986034   -0.0716481865   -2.2353516330
O       -0.4438840833   -1.5732248650   -1.7298817618
H        0.0289660860   -1.6834022418   -0.8667143199
H       -0.1132074417   -2.3342335037   -2.2569030959
O       -0.9185101123    2.0936717630   -0.0875883351
H       -0.6126893708    1.7035318006   -0.9508122896
H       -1.8665823395    1.8168177779   -0.0742218633
18   
Iteration 14 Energy -449.86048170
O        0.8114922010   -1.3566948348    0.5362212861
H        1.4333859046   -1.9758294065    0.9751941475
H        1.2925833433   -0.4875422531    0.5958078306
O       -1.2295703429   -0.9876718173    2.3505744314
H       -0.5483606115   -1.1567498017    1.6529871166
H       -1.4001197215   -0.0245011543    2.2171506147
O        1.9562218737    0.9389141266    0.6615813480
H        1.3421358077    1.7041224109    0.7190190016
H        2.7555211194    1.2457864672    1.1454096537
O       -0.0711832459    0.9053857673   -2.2994811162
H        0.9071626201    0.9629061315   -2.1901632361
H       -0.2175611190   -0.0749401979   -2.1911917508
O       -0.4115747294   -1.5499979723   -1.7286403835
H        0.0582054087   -1.6413170882   -0.8606189291
H       -0.1034042598   -2.3377098718   -2.2282458612
O       -0.7977049935    2.0384144989   -0.0777670269
H       -0.5872250272    1.6771861435   -0.9811459417
H       -1.7623642806    1.8388788508   -0.0098212243
18   
Iteration 15 Energy -449.86615675
O        0.8023231683   -1.3785560451    0.5924056512
H        1.4660515946   -1.9933286147    0.9751130955
H        1.2681987337   -0.4981961001    0.6275810233
O       -1.2609180664   -0.9772673997    2.3773221877
H       -0.5562618806   -1.2015054433    1.7188076310
H       -1.4181231068   -0.0255990464    2.1634351606
O        1.8681115344    0.9436311307    0.5732678812
H        1.1720389500    1.6359076905    0.6575697246
H        2.6090004607    1.2818611128    1.1269655682
O       -0.1014302374    0.9095736568   -2.3414030546
H        0.8794986592    1.0165200038   -2.3459519304
H       -0.2103501379   -0.0664409345   -2.1403283860
O       -0.3637950992   -1.5079087109   -1.7102560336
H        0.0864089844   -1.5717741207   -0.8247108700
H       -0.0651189006   -2.3119202288   -2.1928214989
O       -0.6169302169    1.9619771529   -0.0598710729
H       -0.5421425240    1.6316316581   -0.9969802195
H       -1.5889219749    1.8700342386    0.0867251011
18   
Iteration 16 Energy -449.86942529
O        0.7957187412   -1.3916793786    0.6598777039
H        1.4967362602   -2.0184218409    0.9513663780
H        1.2428348619   -0.4966864999    0.6695254813
O       -1.2866917236   -0.9671078292    2.4004657850
H       -0.5646455684   -1.2515160398    1.7837730316
H       -1.4220276704   -0.0344476580    2.0967248768
O        1.7471821008    0.9433340691    0.4819917004
H        0.9348803194    1.5111719756    0.5232663421
H        2.3784667328    1.3423125640    1.1276567542
O       -0.1215229663    0.9199768337   -2.3625274462
H        0.8466395443    1.0253934532   -2.5231178564
H       -0.2205985739   -0.0439972941   -2.0739856377
O       -0.3245354391   -1.4585856741   -1.6875605500
H        0.0919133888   -1.4573308440   -0.7736919907
H        0.0115010947   -2.2629512101   -2.1515262237
O       -0.3850058057    1.8776536157   -0.0408472195
H       -0.4503724344    1.5796691261   -0.9924454687
H       -1.3428329286    1.9018526327    0.1979242971
18   
Iteration 17 Energy -449.85462943
O        0.8006937829   -1.3154614196    0.6195107839
H        1.4460150452   -2.0343547733    0.8359278793
H        1.2698581348   -0.4223176215    0.6685385778
O       -1.2207506482   -0.9885516124    2.3624582418
H       -0.5447390097   -1.2385614137    1.6809814545
H       -1.3379026220   -0.0349935188    2.1022383120
O        1.8101988286    0.8429939382    0.5925601385
H        0.9534456957    1.3321952257    0.3855572851
H        2.3254001620    1.4004589936    1.2243024214
O        0.0038043881    0.9160926396   -2.2233413924
H        0.9544677502    0.7778547910   -2.4407445486
H       -0.3851861920   -0.0043601271   -2.0071588111
O       -0.4036417846   -1.4794047680   -1.6823563532
H       -0.0600447166   -1.3743360096   -0.7268471057
H        0.1384073932   -2.1447047593   -2.1873155526
O       -0.4796184986    2.0100326166   -0.0683671927
H       -0.3953076111    1.5316727139   -0.9482564296
H       -1.4474601552    1.9443851063    0.0991822552
18   
Iteration 18 Energy -449.86998514
O        0.7951927802   -1.3476138972    0.6389300865
H        1.4624275164   -2.0248077603    0.9052510785
H        1.2626708339   -0.4561208164    0.6618032286
O       -1.2550419267   -0.9813443853    2.3837122704
H       -0.5535560718   -1.2421693400    1.7330553180
H       -1.3890532879   -0.0389492184    2.1017034300
O        1.8207539694    0.8751991195    0.5420393991
H        0.9700237613    1.3973088480    0.4536438109
H        2.3758209499    1.3603143681    1.1962164186
O       -0.0789711516    0.9308602901   -2.2968326566
H        0.8891303928    0.9260270459   -2.4829446362
H       -0.3056275932   -0.0291686111   -2.0499575943
O       -0.3513122467   -1.4644207612   -1.6725353860
H        0.0397323779   -1.4293213540   -0.7395955184
H        0.0665893587   -2.2160890650   -2.1651209034
O       -0.4612707282    1.9568905225   -0.0690330310
H       -0.4377892351    1.5707732210   -0.9946301590
H       -1.4220797621    1.9312717953    0.1411648040
18   
Iteration 19 Energy -449.87649863
O        0.7807466711   -1.3556841972    0.6405873409
H        1.4433104330   -2.0315668686    0.9021018208
H        1.2892161813   -0.4852654972    0.6763419064
O       -1.2574158558   -0.9788110293    2.3848648665
H       -0.5452016898   -1.2451625179    1.7482806268
H       -1.4003559481   -0.0421968178    2.0982466957
O        1.8150689841    0.8815104391    0.5329690568
H        0.9878567817    1.4411352176    0.4734047019
H        2.3717353927    1.3350458924    1.2006042254
O       -0.1143236062    0.9183277379   -2.3088891026
H        0.8532792339    0.9677769583   -2.4890946285
H       -0.2545622278   -0.0573214015   -2.0888850332
O       -0.3504060208   -1.4569741897   -1.6388838422
H        0.0797185756   -1.4864753370   -0.7323872502
H        0.0539413454   -2.2002053165   -2.1427935756
O       -0.4628651988    1.9648074366   -0.0887097578
H       -0.4496559471    1.6301289642   -1.0333492496
H       -1.4124471686    1.9195705284    0.1524611574
18   
Iteration 20 Energy -449.88095519
O        0.7866074352   -1.3650098731    0.6394384840
H        1.4552735015   -2.0368653097    0.8873741178
H        1.2915214499   -0.4877889230    0.6618403141
O       -1.2541450945   -0.9782103526    2.3860219485
H       -0.5352106930   -1.2474086155    1.7585386561
H       -1.4085167766   -0.0457297167    2.0958792856
O        1.7352683833    0.8811198797    0.5207508936
H        0.9080324149    1.4397247842    0.4219802938
H        2.2683487279    1.3302406837    1.2143408481
O       -0.1415362805    0.9053019990   -2.3219543504
H        0.8214855690    0.9745376863   -2.5169012488
H       -0.2430695851   -0.0743244752   -2.1045140063
O       -0.3571163471   -1.4501129402   -1.6101161778
H        0.0767109554   -1.4924963424   -0.7074397297
H        0.0831965653   -2.1611964117   -2.1242859415
O       -0.3670190452    1.9743772392   -0.0775576516
H       -0.3789880088    1.6340764091   -1.0232651920
H       -1.3132032365    1.9184042809    0.1867394154
18   
Iteration 21 Energy -449.88334457
O        0.7817562803   -1.3819033373    0.6433660816
H        1.4766475211   -2.0319660134    0.8789387628
H        1.2441907584   -0.4721389365    0.6442122792
O       -1.2491165326   -0.9869542795    2.3920830507
H       -0.5149089886   -1.2368396705    1.7749039650
H       -1.4306611976   -0.0615810517    2.0963032793
O        1.6951347712    0.8550812659    0.5267950425
H        0.8381517625    1.3760108525    0.3977134196
H        2.1691151860    1.3076834062    1.2584107404
O       -0.1929081807    0.9079768079   -2.3172460369
H        0.7572419528    1.0163401118   -2.5540796609
H       -0.2493936476   -0.0769710035   -2.0945720993
O       -0.3283293481   -1.4336286615   -1.5608914752
H        0.1158897388   -1.5270562146   -0.6653220468
H        0.1079531007   -2.1262087950   -2.1010006545
O       -0.2654135026    2.0047626853   -0.1614827364
H       -0.3648581090    1.6663275660   -1.1083824618
H       -1.1628516324    1.9197052704    0.2371205086
18   
Iteration 22 Energy -449.88624631
O        0.7773367979   -1.3787452367    0.6489528837
H        1.4564659132   -2.0587994299    0.8422122680
H        1.2671958886   -0.4703834632    0.6918547807
O       -1.2217590035   -1.0127521876    2.3932354488
H       -0.4860655593   -1.2196128854    1.7627607526
H       -1.4336323371   -0.0907946267    2.1072669036
O        1.6563643137    0.8064983271    0.5537034232
H        0.8457981745    1.3747603817    0.2874032174
H        2.0336940120    1.2424289554    1.3431504528
O       -0.2313542911    0.9175511223   -2.3143992192
H        0.7058921159    0.9958834982   -2.6018052334
H       -0.3154536589   -0.0660522617   -2.0723165187
O       -0.3178944295   -1.4346600459   -1.5380142245
H        0.1311426348   -1.5193939771   -0.6361070921
H        0.1563650459   -2.0976074093   -2.0840437993
O       -0.2245691632    2.1046355513   -0.2076265524
H       -0.2953806142    1.6907255769   -1.1370816145
H       -1.0765059080    1.9349581137    0.2477240808
18   
Iteration 23 Energy -449.88690670
O        0.7770327594   -1.4094414579    0.6670133017
H        1.5004146694   -2.0381135536    0.8706514449
H        1.2020733456   -0.4629488825    0.6474128078
O       -1.2161324362   -1.0237595368    2.4023645145
H       -0.4814060166   -1.2574725969    1.7779748401
H       -1.4281240481   -0.1029864612    2.1090378389
O        1.6655203820    0.8129696379    0.5846165936
H        0.9113746209    1.4389887998    0.2611283591
H        1.9932639294    1.2275694256    1.4049614983
O       -0.2277961923    0.9076545778   -2.3102274825
H        0.6931577075    0.9875115304   -2.6415250402
H       -0.3096270091   -0.0830651032   -2.0963502263
O       -0.3338313798   -1.4285745681   -1.5475566893
H        0.0913126519   -1.4969700358   -0.6297880166
H        0.1667051138   -2.0694926192   -2.0977851114
O       -0.2155608477    2.1143533232   -0.2221904992
H       -0.3057304373    1.6672090830   -1.1396214179
H       -1.0550068812    1.9352084407    0.2467532417
18   
Iteration 24 Energy -449.88829570
O        0.7550188205   -1.3723119005    0.6625256913
H        1.4435510092   -2.0352152942    0.8850932381
H        1.2365610931   -0.4526805539    0.6771817616
O       -1.2202958913   -1.0518078478    2.4299770755
H       -0.4988134715   -1.2946057222    1.7905444237
H       -1.4447374193   -0.1363508513    2.1264395524
O        1.7031148381    0.8548843295    0.5875674273
H        0.9153923866    1.4432888588    0.2606896712
H        1.9535631235    1.2325634226    1.4561213039
O       -0.2678014708    0.9149873669   -2.3420999756
H        0.6274007967    0.9686539829   -2.7436803964
H       -0.3347095262   -0.0643877803   -2.0752780898
O       -0.2855114654   -1.4077620749   -1.5723110520
H        0.1059169625   -1.4728444096   -0.6385994952
H        0.1703550134   -2.1129559921   -2.0818448679
O       -0.1514595349    2.1071531325   -0.2321843747
H       -0.2951674380    1.6738027364   -1.1530285770
H       -0.9847378989    1.9242286005    0.2497566371
18   
Iteration 25 Energy -449.88747385
O        0.7461489814   -1.3197282220    0.6553415327
H        1.4638051380   -1.9685198510    0.8248864500
H        1.2044530501   -0.3873379830    0.7089470449
O       -1.2283004583   -1.0717071502    2.4639811541
H       -0.4932666800   -1.3079132936    1.8392866855
H       -1.4565603511   -0.1706683550    2.1259785005
O        1.6541014130    0.7992824871    0.6469290859
H        0.9116980845    1.4479278111    0.3274583071
H        1.9324749887    1.1439666917    1.5250477332
O       -0.3065251301    0.8880726298   -2.3530831399
H        0.5401933866    1.0073668661   -2.8392317095
H       -0.2824632205   -0.0847727690   -2.0524326987
O       -0.2870939964   -1.4139003938   -1.5631023448
H        0.1257529090   -1.4942710066   -0.6406687844
H        0.1712586247   -2.0923161680   -2.1038974706
O       -0.0923973052    2.1307658818   -0.2905737736
H       -0.2599946398    1.6786388000   -1.2000854246
H       -0.9156448695    1.9337540283    0.2120888043
18   
Iteration 26 Energy -449.88931697
O        0.7320552688   -1.3553620121    0.6574253329
H        1.4431166184   -2.0057810688    0.8402435834
H        1.1918309656   -0.4228580820    0.7065931861
O       -1.2228912562   -1.0854387177    2.4703740922
H       -0.4985309223   -1.3013407663    1.8293260455
H       -1.4684639806   -0.1863744797    2.1419752988
O        1.7071380243    0.8428547594    0.6493726117
H        0.9549226837    1.4598094782    0.2962103059
H        1.9148713993    1.1791451785    1.5478618468
O       -0.3293675958    0.8862152361   -2.3381543447
H        0.5103568384    1.0328380722   -2.8293861699
H       -0.2970509758   -0.0981917017   -2.0698198399
O       -0.2850538302   -1.4174463354   -1.5527535701
H        0.1484390417   -1.4721753285   -0.6374616405
H        0.1640786654   -2.1029501661   -2.0912698780
O       -0.0977658119    2.1407161252   -0.2932663649
H       -0.2013388154    1.6936941593   -1.2149001089
H       -0.9387063933    1.9312856533    0.1744995643
18   
Iteration 27 Energy -449.88984054
O        0.7449130605   -1.3503595844    0.6651407224
H        1.4369046612   -2.0169061901    0.8578399891
H        1.2359278944   -0.4324529002    0.6831924677
O       -1.2068127293   -1.0955978230    2.4647666022
H       -0.4925526633   -1.2998219600    1.8069456241
H       -1.4772106778   -0.1937385349    2.1589990228
O        1.6900450998    0.8488196458    0.6673980733
H        0.9588814745    1.4657195813    0.2641796118
H        1.8733034474    1.2133666132    1.5575678402
O       -0.2955737772    0.8990137705   -2.3316616020
H        0.5416048833    0.9732382597   -2.8389955421
H       -0.3455627364   -0.0931662345   -2.0836894928
O       -0.2922562219   -1.4008414684   -1.5670741955
H        0.1204082285   -1.4540028677   -0.6389503135
H        0.1910198732   -2.0753057197   -2.0918786623
O       -0.0863345634    2.1231813522   -0.2902657066
H       -0.2449703233    1.6495723806   -1.1897784833
H       -0.9240950055    1.9579216834    0.1931339950
18   
Iteration 28 Energy -449.89072187
O        0.7458295593   -1.3453692905    0.6543465174
H        1.4462327465   -2.0059301762    0.8420393866
H        1.2160081638   -0.4162937584    0.6995746537
O       -1.2071478225   -1.1000705829    2.4707121908
H       -0.4905956928   -1.3013543461    1.8136821781
H       -1.4864523142   -0.2013224441    2.1645335077
O        1.6913466121    0.8387413877    0.6719136162
H        0.9570954745    1.4592104610    0.2812817459
H        1.8755548167    1.2012918556    1.5636595838
O       -0.3103787934    0.8895530296   -2.3480815521
H        0.5195790133    0.9753185675   -2.8652854674
H       -0.3334939806   -0.0986394887   -2.0831967545
O       -0.2928935192   -1.4095704777   -1.5635132581
H        0.1172869108   -1.4564338712   -0.6335711927
H        0.1932598179   -2.0797152028   -2.0903237672
O       -0.0752542105    2.1334341665   -0.2878091665
H       -0.2241137448    1.6712173926   -1.1970658780
H       -0.9142231129    1.9645727823    0.1939736061
18   
Iteration 29 Energy -449.89099204
O        0.7377967441   -1.3319682111    0.6521436006
H        1.4381363706   -1.9961202866    0.8281924104
H        1.2073468920   -0.4022344042    0.7171864459
O       -1.2016767329   -1.1173088988    2.4841335996
H       -0.4881663440   -1.3014082706    1.8197421279
H       -1.5007925173   -0.2264613096    2.1764620687
O        1.6890315174    0.8389061294    0.6904133833
H        0.9652603889    1.4676222821    0.2951841929
H        1.8589983997    1.1869554301    1.5923964363
O       -0.3283965976    0.8868954115   -2.3400521556
H        0.4790520543    0.9872856568   -2.8914426076