8    
Scan Cycle 1/3 ; Dihedral 2-1-5-6 = 100.00 ; Iteration 13 Energy -78.79071135
C       -4.1337154620    0.7044172783   -0.0086067619
H       -3.3704727703    0.0618591282   -0.4310899815
H       -4.4501808335    1.4098818032   -0.7665732618
H       -4.9813080495    0.0727188155    0.2316297465
C       -3.6137870218    1.4312850309    1.2606199517
H       -3.3156090395    2.4479776241    1.0340395606
H       -4.3910456347    1.4902481399    2.0139871391
H       -2.7690816103    0.9120169224    1.6955652344
8    
Scan Cycle 2/3 ; Dihedral 2-1-5-6 = 110.00 ; Iteration 7 Energy -78.78987624
C       -4.1350802388    0.7020190573   -0.0083631312
H       -3.4036945426   -0.0055351035   -0.3797909306
H       -4.3610347555    1.4032986364   -0.8019205757
H       -5.0392980652    0.1452943929    0.2076568670
C       -3.6155773139    1.4325833703    1.2623050883
H       -3.4003368527    2.4738122657    1.0548669119
H       -4.3567556697    1.4093247414    2.0524510363
H       -2.7134687711    0.9696406321    1.6423920542
8    
Scan Cycle 3/3 ; Dihedral 2-1-5-6 = 120.00 ; Iteration 7 Energy -78.78956568
C       -4.1372974306    0.6993114435   -0.0066077838
H       -3.4434406181   -0.0688997063   -0.3254878107
H       -4.2668383251    1.3890190278   -0.8317108892
H       -5.0928276953    0.2238443438    0.1782040027
C       -3.6190152142    1.4332633261    1.2640151697
H       -3.4877797543    2.4923076782    1.0783480032
H       -4.3136693508    1.3270642649    2.0882964667
H       -2.6643085438    1.0344152979    1.5845272429
