3
Properties=species:S:1:pos:R:3 pbc="F F F" comment="TS with GFN2-xTB" energy=-5.38737353 gibbs_free_energy=-5.39851798
C        0.0761984308    0.0000668429   -0.0165564444
N        0.6133251472   -0.0000980076    1.0596943790
H       -0.6900325422   -0.0001397427    0.8571883967
