3    
Iteration 0 Energy -92.35408417
C        0.0000000000    0.0000000000    0.0000000000
N        0.0000000000    0.0000000000    1.1371177000
H        0.0000000000    0.0000000000   -1.0502281000
