3    
Iteration 17 Energy -92.24601961
C       -0.4852877288    0.0007469129    0.1753988978
N        0.0305653123    0.0001534186    1.2396569870
H       -1.3592096529    0.0001840186    1.0173550904
