ethane
Force     RHF                                                         6-31G(d)
Number of atoms                            I                8
Info1-9                                    I   N=           9
          18          17           0           0           0         100
           5           1           2
Charge                                     I                0
Multiplicity                               I                1
Number of electrons                        I               18
Number of alpha electrons                  I                9
Number of beta electrons                   I                9
Number of basis functions                  I               42
Number of independent functions            I               42
Number of point charges in /Mol/           I                0
Number of translation vectors              I                0
Atomic numbers                             I   N=           8
           6           1           1           1           6           1
           1           1
Nuclear charges                            R   N=           8
  6.00000000E+00  1.00000000E+00  1.00000000E+00  1.00000000E+00  6.00000000E+00
  1.00000000E+00  1.00000000E+00  1.00000000E+00
Current cartesian coordinates              R   N=          24
  1.11022302E-16  8.34835673E-18  1.45508906E+00 -3.63261938E-01  1.87143657E+00
  2.12909067E+00  1.80234258E+00 -6.21124219E-01  2.12909067E+00 -1.43908064E+00
 -1.25031235E+00  2.12909067E+00  3.33066907E-16 -2.86012533E-16 -1.45508906E+00
  1.43908064E+00 -1.25031235E+00 -2.12909067E+00 -1.80234258E+00 -6.21124219E-01
 -2.12909067E+00  3.63261938E-01  1.87143657E+00 -2.12909067E+00
Force Field                                I                0
Int Atom Types                             I   N=           8
           0           0           0           0           0           0
           0           0
MM charges                                 R   N=           8
  0.00000000E+00  0.00000000E+00  0.00000000E+00  0.00000000E+00  0.00000000E+00
  0.00000000E+00  0.00000000E+00  0.00000000E+00
Integer atomic weights                     I   N=           8
          12           1           1           1          12           1
           1           1
Real atomic weights                        R   N=           8
  1.20000000E+01  1.00782504E+00  1.00782504E+00  1.00782504E+00  1.20000000E+01
  1.00782504E+00  1.00782504E+00  1.00782504E+00
Atom fragment info                         I   N=           8
           0           0           0           0           0           0
           0           0
Atom residue num                           I   N=           8
           0           0           0           0           0           0
           0           0
Nuclear spins                              I   N=           8
           0           1           1           1           0           1
           1           1
Nuclear ZEff                               R   N=           8
 -3.60000000E+00 -1.00000000E+00 -1.00000000E+00 -1.00000000E+00 -3.60000000E+00
 -1.00000000E+00 -1.00000000E+00 -1.00000000E+00
Nuclear ZNuc                               R   N=           8
  6.00000000E+00  1.00000000E+00  1.00000000E+00  1.00000000E+00  6.00000000E+00
  1.00000000E+00  1.00000000E+00  1.00000000E+00
Nuclear QMom                               R   N=           8
  0.00000000E+00  0.00000000E+00  0.00000000E+00  0.00000000E+00  0.00000000E+00
  0.00000000E+00  0.00000000E+00  0.00000000E+00
Nuclear GFac                               R   N=           8
  0.00000000E+00  2.79284600E+00  2.79284600E+00  2.79284600E+00  0.00000000E+00
  2.79284600E+00  2.79284600E+00  2.79284600E+00
MicOpt                                     I   N=           8
          -1          -1          -1          -1          -1          -1
          -1          -1
Number of contracted shells                I               20
Number of primitive shells                 I               46
Pure/Cartesian d shells                    I                1
Pure/Cartesian f shells                    I                0
Highest angular momentum                   I                2
Largest degree of contraction              I                6
Shell types                                I   N=          20
           0          -1          -1           2           0           0
           0           0           0           0           0          -1
          -1           2           0           0           0           0
           0           0
Number of primitives per shell             I   N=          20
           6           3           1           1           3           1
           3           1           3           1           6           3
           1           1           3           1           3           1
           3           1
Shell to atom map                          I   N=          20
           1           1           1           1           2           2
           3           3           4           4           5           5
           5           5           6           6           7           7
           8           8
Primitive exponents                        R   N=          46
  3.04752488E+03  4.57369518E+02  1.03948685E+02  2.92101553E+01  9.28666296E+00
  3.16392696E+00  7.86827235E+00  1.88128854E+00  5.44249258E-01  1.68714478E-01
  8.00000000E-01  1.87311370E+01  2.82539436E+00  6.40121692E-01  1.61277759E-01
  1.87311370E+01  2.82539436E+00  6.40121692E-01  1.61277759E-01  1.87311370E+01
  2.82539436E+00  6.40121692E-01  1.61277759E-01  3.04752488E+03  4.57369518E+02
  1.03948685E+02  2.92101553E+01  9.28666296E+00  3.16392696E+00  7.86827235E+00
  1.88128854E+00  5.44249258E-01  1.68714478E-01  8.00000000E-01  1.87311370E+01
  2.82539436E+00  6.40121692E-01  1.61277759E-01  1.87311370E+01  2.82539436E+00
  6.40121692E-01  1.61277759E-01  1.87311370E+01  2.82539436E+00  6.40121692E-01
  1.61277759E-01
Contraction coefficients                   R   N=          46
  1.83473713E-03  1.40373228E-02  6.88426223E-02  2.32184443E-01  4.67941348E-01
  3.62311985E-01 -1.19332420E-01 -1.60854152E-01  1.14345644E+00  1.00000000E+00
  1.00000000E+00  3.34946043E-02  2.34726953E-01  8.13757326E-01  1.00000000E+00
  3.34946043E-02  2.34726953E-01  8.13757326E-01  1.00000000E+00  3.34946043E-02
  2.34726953E-01  8.13757326E-01  1.00000000E+00  1.83473713E-03  1.40373228E-02
  6.88426223E-02  2.32184443E-01  4.67941348E-01  3.62311985E-01 -1.19332420E-01
 -1.60854152E-01  1.14345644E+00  1.00000000E+00  1.00000000E+00  3.34946043E-02
  2.34726953E-01  8.13757326E-01  1.00000000E+00  3.34946043E-02  2.34726953E-01
  8.13757326E-01  1.00000000E+00  3.34946043E-02  2.34726953E-01  8.13757326E-01
  1.00000000E+00
P(S=P) Contraction coefficients            R   N=          46
  0.00000000E+00  0.00000000E+00  0.00000000E+00  0.00000000E+00  0.00000000E+00
  0.00000000E+00  6.89990666E-02  3.16423961E-01  7.44308291E-01  1.00000000E+00
  0.00000000E+00  0.00000000E+00  0.00000000E+00  0.00000000E+00  0.00000000E+00
  0.00000000E+00  0.00000000E+00  0.00000000E+00  0.00000000E+00  0.00000000E+00
  0.00000000E+00  0.00000000E+00  0.00000000E+00  0.00000000E+00  0.00000000E+00
  0.00000000E+00  0.00000000E+00  0.00000000E+00  0.00000000E+00  6.89990666E-02
  3.16423961E-01  7.44308291E-01  1.00000000E+00  0.00000000E+00  0.00000000E+00
  0.00000000E+00  0.00000000E+00  0.00000000E+00  0.00000000E+00  0.00000000E+00
  0.00000000E+00  0.00000000E+00  0.00000000E+00  0.00000000E+00  0.00000000E+00
  0.00000000E+00
Coordinates of each shell                  R   N=          60
 -6.73113878E-17 -3.84411212E-17  1.45508906E+00 -6.73113878E-17 -3.84411212E-17
  1.45508906E+00 -6.73113878E-17 -3.84411212E-17  1.45508906E+00 -6.73113878E-17
 -3.84411212E-17  1.45508906E+00 -3.63261938E-01  1.87143657E+00  2.12909067E+00
 -3.63261938E-01  1.87143657E+00  2.12909067E+00  1.80234258E+00 -6.21124219E-01
  2.12909067E+00  1.80234258E+00 -6.21124219E-01  2.12909067E+00 -1.43908064E+00
 -1.25031235E+00  2.12909067E+00 -1.43908064E+00 -1.25031235E+00  2.12909067E+00
  3.09632395E-16 -8.74259341E-17 -1.45508906E+00  3.09632395E-16 -8.74259341E-17
 -1.45508906E+00  3.09632395E-16 -8.74259341E-17 -1.45508906E+00  3.09632395E-16
 -8.74259341E-17 -1.45508906E+00  1.43908064E+00 -1.25031235E+00 -2.12909067E+00
  1.43908064E+00 -1.25031235E+00 -2.12909067E+00 -1.80234258E+00 -6.21124219E-01
 -2.12909067E+00 -1.80234258E+00 -6.21124219E-01 -2.12909067E+00  3.63261938E-01
  1.87143657E+00 -2.12909067E+00  3.63261938E-01  1.87143657E+00 -2.12909067E+00
Constraint Structure                       R   N=          24
 -6.73113878E-17 -3.84411212E-17  1.45508906E+00 -3.63261938E-01  1.87143657E+00
  2.12909067E+00  1.80234258E+00 -6.21124219E-01  2.12909067E+00 -1.43908064E+00
 -1.25031235E+00  2.12909067E+00  3.09632395E-16 -8.74259341E-17 -1.45508906E+00
  1.43908064E+00 -1.25031235E+00 -2.12909067E+00 -1.80234258E+00 -6.21124219E-01
 -2.12909067E+00  3.63261938E-01  1.87143657E+00 -2.12909067E+00
Num ILSW                                   I              100
ILSW                                       I   N=         100
           0           1           0           0           2           0
           0           0           0           0           0          -1
           0           0           0           0           2           0
           0           0           1           0           1           0
           1           0           0           0           0           0
           0           0      100000           0          -1           0
           0           0           0           0           0           0
           0           0           0           1           0           0
           0           0           1           0           0           0
           0           0           4          41           0           0
           0           0           0           0           0           0
           0           0           0           0           0           0
           0           0           0           0           0           0
           0           0           0           0           0           0
           0           0           0           0           0           0
           0           0           0           0           0           0
           0           0           0           0
Num RLSW                                   I               41
RLSW                                       R   N=          41
  1.00000000E+00  1.00000000E+00  1.00000000E+00  1.00000000E+00  1.00000000E+00
  0.00000000E+00  0.00000000E+00  1.00000000E+00  0.00000000E+00  0.00000000E+00
  0.00000000E+00  0.00000000E+00  1.00000000E+00  0.00000000E+00  0.00000000E+00
  0.00000000E+00  0.00000000E+00  1.00000000E+00  0.00000000E+00  0.00000000E+00
  0.00000000E+00  0.00000000E+00  1.00000000E+00  0.00000000E+00  0.00000000E+00
  0.00000000E+00  0.00000000E+00  1.00000000E+00  0.00000000E+00  0.00000000E+00
  0.00000000E+00  0.00000000E+00  1.00000000E+00  0.00000000E+00  0.00000000E+00
  0.00000000E+00  0.00000000E+00  0.00000000E+00  1.00000000E+00  1.00000000E+00
  0.00000000E+00
MxBond                                     I                4
NBond                                      I   N=           8
           4           1           1           1           4           1
           1           1
IBond                                      I   N=          32
           2           3           4           5           1           0
           0           0           1           0           0           0
           1           0           0           0           1           6
           7           8           5           0           0           0
           5           0           0           0           5           0
           0           0
RBond                                      R   N=          32
  1.00000000E+00  1.00000000E+00  1.00000000E+00  1.00000000E+00  1.00000000E+00
  0.00000000E+00  0.00000000E+00  0.00000000E+00  1.00000000E+00  0.00000000E+00
  0.00000000E+00  0.00000000E+00  1.00000000E+00  0.00000000E+00  0.00000000E+00
  0.00000000E+00  1.00000000E+00  1.00000000E+00  1.00000000E+00  1.00000000E+00
  1.00000000E+00  0.00000000E+00  0.00000000E+00  0.00000000E+00  1.00000000E+00
  0.00000000E+00  0.00000000E+00  0.00000000E+00  1.00000000E+00  0.00000000E+00
  0.00000000E+00  0.00000000E+00
Virial Ratio                               R      1.998589616879897E+00
SCF Energy                                 R     -7.922320761576350E+01
Total Energy                               R     -7.922320761576350E+01
RMS Force                                  R      8.283783534114240E-03
RMS Density                                R      3.038200341489558E-09
External E-field                           R   N=          35
  0.00000000E+00  0.00000000E+00  0.00000000E+00  0.00000000E+00  0.00000000E+00
  0.00000000E+00  0.00000000E+00  0.00000000E+00  0.00000000E+00  0.00000000E+00
  0.00000000E+00  0.00000000E+00  0.00000000E+00  0.00000000E+00  0.00000000E+00
  0.00000000E+00  0.00000000E+00  0.00000000E+00  0.00000000E+00  0.00000000E+00
  0.00000000E+00  0.00000000E+00  0.00000000E+00  0.00000000E+00  0.00000000E+00
  0.00000000E+00  0.00000000E+00  0.00000000E+00  0.00000000E+00  0.00000000E+00
  0.00000000E+00  0.00000000E+00  0.00000000E+00  0.00000000E+00  0.00000000E+00
IOpCl                                      I                0
IROHF                                      I                0
Alpha Orbital Energies                     R   N=          42
 -1.12025589E+01 -1.12020000E+01 -1.02082172E+00 -8.45245622E-01 -6.05731471E-01
 -6.05731471E-01 -4.95586827E-01 -4.92760149E-01 -4.92760149E-01  2.43253175E-01
  2.93406966E-01  2.93406966E-01  3.09546017E-01  3.87458197E-01  3.87458197E-01
  4.08559866E-01  7.07230766E-01  7.34371572E-01  7.34371572E-01  8.62014142E-01
  8.62014142E-01  9.42399093E-01  1.15878547E+00  1.15878547E+00  1.22486322E+00
  1.22745205E+00  1.22745205E+00  1.26461646E+00  1.28402597E+00  1.72057408E+00
  1.76689451E+00  1.76689451E+00  2.26259522E+00  2.37284750E+00  2.37284750E+00
  2.54287905E+00  2.54287905E+00  2.75242438E+00  2.75242438E+00  2.94429238E+00
  4.58394752E+00  4.82176345E+00
Alpha MO coefficients                      R   N=        1764
  7.03956967E-01  2.03134359E-02 -5.07499866E-17  1.99198749E-16 -7.33485506E-05
 -7.97774404E-03  4.02490309E-16 -7.76586535E-17 -6.77764666E-04 -1.40025691E-03
 -1.40025691E-03 -1.78094144E-03 -3.28672846E-16 -5.65685882E-16  3.10869676E-17
 -2.77224587E-05  1.82961909E-03 -2.77224587E-05  1.82961909E-03 -2.77224587E-05
  1.82961909E-03  7.03956967E-01  2.03134359E-02  5.07499866E-17  1.99198749E-16
  7.33485506E-05 -7.97774404E-03 -4.02490309E-16 -7.76586535E-17  6.77764666E-04
 -1.40025691E-03 -1.40025691E-03 -1.78094144E-03  3.28672846E-16 -5.65685882E-16
 -3.10869676E-17 -2.77224587E-05  1.82961909E-03 -2.77224587E-05  1.82961909E-03
 -2.77224587E-05  1.82961909E-03  7.04179710E-01  2.02946641E-02 -5.61888367E-17
 -1.50867812E-17 -1.92490255E-06 -1.38394012E-02  2.31243444E-16 -6.15801341E-16
  1.79695999E-03 -1.21350152E-03 -1.21350152E-03 -1.05054763E-03  1.41911866E-17
 -4.86347307E-17 -6.03967192E-17  1.99683823E-04  1.95568013E-03  1.99683823E-04
  1.95568013E-03  1.99683823E-04  1.95568013E-03 -7.04179710E-01 -2.02946641E-02
 -5.61888367E-17  1.50867812E-17 -1.92490255E-06  1.38394012E-02  2.31243444E-16
  6.15801341E-16  1.79695999E-03  1.21350152E-03  1.21350152E-03  1.05054763E-03
  1.41911866E-17  4.86347307E-17 -6.03967192E-17 -1.99683823E-04 -1.95568013E-03
 -1.99683823E-04 -1.95568013E-03 -1.99683823E-04 -1.95568013E-03 -1.44894088E-01
  2.67765457E-01 -2.36890915E-16  1.55752151E-16 -5.44721139E-02  2.34011011E-01
 -2.72024628E-15 -3.96558469E-16 -9.45773806E-03  5.14211211E-03  5.14211211E-03
  1.16707395E-02 -3.34689467E-16  2.19990087E-17 -2.39622706E-17  8.76881644E-02
  1.86159734E-02  8.76881644E-02  1.86159734E-02  8.76881644E-02  1.86159734E-02
 -1.44894088E-01  2.67765457E-01  2.36890915E-16  1.55752151E-16  5.44721139E-02
  2.34011011E-01  2.72024628E-15 -3.96558469E-16  9.45773806E-03  5.14211211E-03
  5.14211211E-03  1.16707395E-02  3.34689467E-16  2.19990087E-17  2.39622706E-17
  8.76881644E-02  1.86159734E-02  8.76881644E-02  1.86159734E-02  8.76881644E-02
  1.86159734E-02 -1.28425802E-01  2.40131096E-01 -9.45112572E-17 -1.29458684E-15
  1.24648649E-01  2.73621484E-01  2.72042381E-15  3.79613301E-16  3.73706693E-02
  1.32505460E-02  1.32505460E-02 -1.24969768E-02 -3.80505494E-16 -6.12567696E-17
  1.45468043E-16  1.18062114E-01  4.37127217E-02  1.18062114E-01  4.37127217E-02
  1.18062114E-01  4.37127217E-02  1.28425802E-01 -2.40131096E-01 -9.45112572E-17
  1.29458684E-15  1.24648649E-01 -2.73621484E-01  2.72042381E-15 -3.79613301E-16
  3.73706693E-02 -1.32505460E-02 -1.32505460E-02  1.24969768E-02 -3.80505494E-16
  6.12567696E-17  1.45468043E-16 -1.18062114E-01 -4.37127217E-02 -1.18062114E-01
 -4.37127217E-02 -1.18062114E-01 -4.37127217E-02 -2.03911720E-15 -2.66090065E-15
 -1.88924986E-03  3.09728947E-01 -3.55331350E-15  3.52407735E-14  2.58221474E-03
  1.44479350E-01  6.79877892E-15 -1.49441301E-02  1.49441301E-02 -2.72147952E-15
 -1.02919448E-02 -1.55321615E-04  7.22655222E-03  1.78548546E-01  1.32091184E-01
 -6.03062566E-02 -4.77047852E-02 -1.18242290E-01 -8.43863990E-02 -2.03911720E-15
 -2.66090065E-15  1.88924986E-03  3.09728947E-01  3.55331350E-15  3.52407735E-14
 -2.58221474E-03  1.44479350E-01 -6.79877892E-15 -1.49441301E-02  1.49441301E-02
 -2.72147952E-15  1.02919448E-02 -1.55321615E-04 -7.22655222E-03 -1.18242290E-01
 -8.43863990E-02 -6.03062566E-02 -4.77047852E-02  1.78548546E-01  1.32091184E-01
 -2.31948643E-16  5.03530280E-16  3.09728947E-01  1.88924986E-03 -7.05000079E-16
  4.31973484E-15  1.44479350E-01 -2.58221474E-03  2.29233889E-15  8.91308563E-03
 -8.91308563E-03 -4.19365086E-16 -1.72559951E-02  7.22655222E-03  1.55321615E-04
 -3.34493842E-02 -2.11781396E-02  1.71352269E-01  1.24983391E-01 -1.37902885E-01
 -1.03805251E-01  2.31948643E-16 -5.03530280E-16  3.09728947E-01 -1.88924986E-03
 -7.05000079E-16 -4.31973484E-15  1.44479350E-01  2.58221474E-03  2.29233889E-15
 -8.91308563E-03  8.91308563E-03  4.19365086E-16 -1.72559951E-02 -7.22655222E-03
  1.55321615E-04  1.37902885E-01  1.03805251E-01 -1.71352269E-01 -1.24983391E-01
  3.34493842E-02  2.11781396E-02  1.57270494E-02 -3.39690886E-02  2.93493981E-14
  4.38032175E-15  4.03332371E-01 -4.48408032E-02  8.18162296E-15 -4.67408525E-15
  2.12407988E-01  1.42158564E-02  1.42158564E-02 -2.42008763E-02 -2.05862184E-15
  2.03995938E-15  1.20751187E-17  7.99826528E-02  7.69869465E-02  7.99826528E-02
  7.69869465E-02  7.99826528E-02  7.69869465E-02  1.57270494E-02 -3.39690886E-02
 -2.93493981E-14  4.38032175E-15 -4.03332371E-01 -4.48408032E-02 -8.18162296E-15
 -4.67408525E-15 -2.12407988E-01  1.42158564E-02  1.42158564E-02 -2.42008763E-02
  2.05862184E-15  2.03995938E-15 -1.20751187E-17  7.99826528E-02  7.69869465E-02
  7.99826528E-02  7.69869465E-02  7.99826528E-02  7.69869465E-02 -8.85002155E-16
  1.24318694E-14  3.12713916E-01  2.98398593E-03 -3.75650660E-14 -2.38938679E-14
  1.87656220E-01  5.23676335E-03 -2.48059994E-14  1.11615022E-02 -1.11615022E-02
  2.21503570E-15 -1.82098796E-02  2.38075961E-02  9.07328988E-05 -3.92096196E-02
 -3.89024350E-02  1.99736984E-01  1.77538067E-01 -1.60527364E-01 -1.38635632E-01
 -8.85002155E-16  1.24318694E-14 -3.12713916E-01  2.98398593E-03  3.75650660E-14
 -2.38938679E-14 -1.87656220E-01  5.23676335E-03  2.48059994E-14  1.11615022E-02
 -1.11615022E-02  2.21503570E-15  1.82098796E-02  2.38075961E-02 -9.07328988E-05
 -1.60527364E-01 -1.38635632E-01  1.99736984E-01  1.77538067E-01 -3.92096196E-02
 -3.89024350E-02 -7.83611244E-16 -4.86403186E-15 -2.98398593E-03  3.12713916E-01
  3.36581442E-16  2.20628911E-14 -5.23676335E-03  1.87656220E-01 -5.83002497E-15
 -1.57702184E-02  1.57702184E-02  8.51619979E-16 -1.28881926E-02 -9.07328988E-05
  2.38075961E-02  2.07998718E-01  1.82542970E-01 -7.00428324E-02 -5.75809882E-02
 -1.37955886E-01 -1.24961982E-01  7.83611244E-16  4.86403186E-15 -2.98398593E-03
 -3.12713916E-01  3.36581442E-16 -2.20628911E-14 -5.23676335E-03 -1.87656220E-01
 -5.83002497E-15  1.57702184E-02 -1.57702184E-02 -8.51619979E-16 -1.28881926E-02
  9.07328988E-05  2.38075961E-02  1.37955886E-01  1.24961982E-01  7.00428324E-02
  5.75809882E-02 -2.07998718E-01 -1.82542970E-01 -9.53827339E-02  7.02183604E-02
  2.53072628E-14  1.41401011E-14  9.26876054E-02  1.72635344E+00  4.18669628E-13
  1.77323334E-13  4.95788660E-01 -1.07362656E-02 -1.07362656E-02 -3.72909572E-04
 -1.57883067E-15  9.07470015E-16 -9.58955781E-16  2.58620178E-03 -8.21496669E-01
  2.58620178E-03 -8.21496669E-01  2.58620178E-03 -8.21496669E-01 -9.53827339E-02
  7.02183604E-02 -2.53072628E-14  1.41401011E-14 -9.26876054E-02  1.72635344E+00
 -4.18669628E-13  1.77323334E-13 -4.95788660E-01 -1.07362656E-02 -1.07362656E-02
 -3.72909572E-04  1.57883067E-15  9.07470015E-16  9.58955781E-16  2.58620178E-03
 -8.21496669E-01  2.58620178E-03 -8.21496669E-01  2.58620178E-03 -8.21496669E-01
 -2.13363440E-13 -6.88291445E-15  2.04164769E-01  4.35721949E-02  1.57447290E-15
  4.57863849E-12  8.50658513E-01  3.43166919E-01 -9.32450046E-13 -2.10779073E-03
  2.10779073E-03 -2.71683391E-14  1.26685740E-02 -1.08497080E-02  2.85058219E-03
  1.20064933E-03 -9.61598639E-02 -4.74689100E-02 -1.04407502E+00  4.62682606E-02
  1.14023488E+00  2.13363440E-13  6.88291445E-15  2.04164769E-01 -4.35721949E-02
  1.57447290E-15 -4.57863849E-12  8.50658513E-01 -3.43166919E-01 -9.32450046E-13
  2.10779073E-03 -2.10779073E-03  2.71683391E-14  1.26685740E-02  1.08497080E-02
  2.85058219E-03 -4.62682606E-02 -1.14023488E+00  4.74689100E-02  1.04407502E+00
 -1.20064933E-03  9.61598639E-02 -1.19087313E-14 -1.89846886E-14  4.35721949E-02
 -2.04164769E-01 -3.06928963E-16  2.50261849E-13  3.43166919E-01 -8.50658513E-01
  7.41605151E-14 -1.09713069E-02  1.09713069E-02 -3.27257705E-15 -2.43386710E-03
  2.85058219E-03  1.08497080E-02  5.41191807E-02  1.26111191E+00 -2.60197975E-02
 -7.13832840E-01 -2.80993832E-02 -5.47279070E-01 -1.19087313E-14 -1.89846886E-14
 -4.35721949E-02 -2.04164769E-01  3.06928963E-16  2.50261849E-13 -3.43166919E-01
 -8.50658513E-01 -7.41605151E-14 -1.09713069E-02  1.09713069E-02 -3.27257705E-15
  2.43386710E-03  2.85058219E-03 -1.08497080E-02 -2.80993832E-02 -5.47279070E-01
 -2.60197975E-02 -7.13832840E-01  5.41191807E-02  1.26111191E+00 -1.27743218E-01
  4.16645137E-02 -3.01963390E-13 -1.32008207E-13  2.08962449E-02  2.63170889E+00
 -1.22530353E-12 -1.21389692E-12 -3.57080652E-01 -6.71884806E-03 -6.71884806E-03
 -1.31188094E-02 -2.26399573E-14  1.78780604E-14 -6.46539934E-15  1.06329555E-02
 -8.67245317E-01  1.06329555E-02 -8.67245317E-01  1.06329555E-02 -8.67245317E-01
  1.27743218E-01 -4.16645137E-02 -3.01963390E-13  1.32008207E-13  2.08962449E-02
 -2.63170889E+00 -1.22530353E-12  1.21389692E-12 -3.57080652E-01  6.71884806E-03
  6.71884806E-03  1.31188094E-02 -2.26399573E-14 -1.78780604E-14 -6.46539934E-15
 -1.06329555E-02  8.67245317E-01 -1.06329555E-02  8.67245317E-01 -1.06329555E-02
  8.67245317E-01  2.47790055E-14 -1.11672566E-13  2.31069746E-01  7.85269497E-02
 -3.08683742E-14 -2.80469769E-13  1.40563746E+00  2.31887034E-01 -9.58452547E-14
 -4.22910260E-03  4.22910260E-03 -1.67326056E-15  7.32305562E-04  9.01924120E-03
 -6.63740297E-03 -2.57179499E-03 -7.82156263E-02 -1.10589007E-02 -1.36005310E+00
  1.36306957E-02  1.43826873E+00  2.47790055E-14 -1.11672566E-13 -2.31069746E-01
  7.85269497E-02  3.08683742E-14 -2.80469769E-13 -1.40563746E+00  2.31887034E-01
  9.58452547E-14 -4.22910260E-03  4.22910260E-03 -1.67326056E-15 -7.32305562E-04
  9.01924120E-03  6.63740297E-03  1.36306957E-02  1.43826873E+00 -1.10589007E-02
 -1.36005310E+00 -2.57179499E-03 -7.82156263E-02  2.67512295E-14 -2.07857991E-13
  7.85269497E-02 -2.31069746E-01 -1.50048750E-13 -5.88315526E-14  2.31887034E-01
 -1.40563746E+00 -9.95777324E-13 -6.34195220E-04  6.34195220E-04  6.81378848E-15
 -4.88334705E-03 -6.63740297E-03 -9.01924120E-03  1.42545452E-02  1.61561186E+00
 -9.35451238E-03 -8.75542648E-01 -4.90003279E-03 -7.40069210E-01 -2.67512295E-14
  2.07857991E-13  7.85269497E-02  2.31069746E-01 -1.50048750E-13  5.88315526E-14
  2.31887034E-01  1.40563746E+00 -9.95777324E-13  6.34195220E-04 -6.34195220E-04
 -6.81378848E-15 -4.88334705E-03  6.63740297E-03 -9.01924120E-03  4.90003279E-03
  7.40069210E-01  9.35451238E-03  8.75542648E-01 -1.42545452E-02 -1.61561186E+00
  3.56123160E-02 -1.08413047E-02  1.00286415E-13 -1.17752395E-13  2.73787529E-01
 -7.61330022E-01  2.08896478E-13 -6.95773869E-13  1.83228387E+00 -1.22489785E-02
 -1.22489785E-02  1.71266038E-02  5.97192459E-16 -7.62955744E-15 -4.39352957E-15
 -4.95047684E-02 -5.04058589E-01 -4.95047684E-02 -5.04058589E-01 -4.95047684E-02
 -5.04058589E-01 -3.56123160E-02  1.08413047E-02  1.00286415E-13  1.17752395E-13
  2.73787529E-01  7.61330022E-01  2.08896478E-13  6.95773869E-13  1.83228387E+00
  1.22489785E-02  1.22489785E-02 -1.71266038E-02  5.97192459E-16  7.62955744E-15
 -4.39352957E-15  4.95047684E-02  5.04058589E-01  4.95047684E-02  5.04058589E-01
  4.95047684E-02  5.04058589E-01  9.62031171E-03  2.80568205E-02 -1.40025248E-14
  2.53473370E-14 -5.91403347E-01  3.26230289E-01  6.40580746E-15 -2.12409992E-14
  8.90719820E-01 -3.40566107E-02 -3.40566107E-02  1.11327801E-01 -2.88310526E-18
  7.53360246E-17  6.01482016E-16 -1.48452291E-01  1.18692244E-02 -1.48452291E-01
  1.18692244E-02 -1.48452291E-01  1.18692244E-02  9.62031171E-03  2.80568205E-02
  1.40025248E-14  2.53473370E-14  5.91403347E-01  3.26230289E-01 -6.40580746E-15
 -2.12409992E-14 -8.90719820E-01 -3.40566107E-02 -3.40566107E-02  1.11327801E-01
  2.88310526E-18  7.53360246E-17 -6.01482016E-16 -1.48452291E-01  1.18692244E-02
 -1.48452291E-01  1.18692244E-02 -1.48452291E-01  1.18692244E-02 -1.71641929E-15
  2.38477112E-14 -4.62016608E-01 -6.92271481E-02  3.62969243E-14 -1.57967442E-14
  7.58711351E-01  6.58008885E-02  2.60113550E-15 -2.79348350E-02  2.79348350E-02
  9.23103345E-15  6.24544926E-02 -4.79487399E-02 -9.39755668E-04  6.50032177E-02
  4.51886898E-02 -3.71444186E-01 -4.15616992E-02  3.06440968E-01 -3.62699063E-03
  1.71641929E-15 -2.38477112E-14 -4.62016608E-01  6.92271481E-02  3.62969243E-14
  1.57967442E-14  7.58711351E-01 -6.58008885E-02  2.60113550E-15  2.79348350E-02
 -2.79348350E-02 -9.23103345E-15  6.24544926E-02  4.79487399E-02 -9.39755668E-04
 -3.06440968E-01  3.62699063E-03  3.71444186E-01  4.15616992E-02 -6.50032177E-02
 -4.51886898E-02  1.96384078E-15 -2.56105118E-14  6.92271481E-02 -4.62016608E-01
 -3.03153582E-14  3.42315269E-14 -6.58008885E-02  7.58711351E-01  4.05713965E-14
  5.40871771E-02 -5.40871771E-02  4.23908311E-15  3.22563690E-02  9.39755668E-04
 -4.79487399E-02 -3.91377176E-01 -2.19016142E-02  1.39394150E-01 -2.81837463E-02
  2.51983026E-01  5.00853604E-02  1.96384078E-15 -2.56105118E-14 -6.92271481E-02
 -4.62016608E-01  3.03153582E-14  3.42315269E-14  6.58008885E-02  7.58711351E-01
 -4.05713965E-14  5.40871771E-02 -5.40871771E-02  4.23908311E-15 -3.22563690E-02
  9.39755668E-04  4.79487399E-02  2.51983026E-01  5.00853604E-02  1.39394150E-01
 -2.81837463E-02 -3.91377176E-01 -2.19016142E-02 -4.30776618E-16 -1.22658789E-13
 -5.72032927E-01  1.76301820E-02 -3.65562414E-16  1.94884903E-13  1.81337707E+00
  6.65328629E-02  1.15972632E-14 -3.78406858E-02  3.78406858E-02 -1.38231130E-14
  7.22213342E-02 -2.74107526E-03 -1.98036036E-02 -8.59409992E-03  7.37695324E-02
 -2.97863267E-01 -4.68593560E-01  3.06457367E-01  3.94824027E-01 -4.30776618E-16
 -1.22658789E-13  5.72032927E-01  1.76301820E-02  3.65562414E-16  1.94884903E-13
 -1.81337707E+00  6.65328629E-02 -1.15972632E-14 -3.78406858E-02  3.78406858E-02
 -1.38231130E-14 -7.22213342E-02 -2.74107526E-03  1.98036036E-02  3.06457367E-01
  3.94824027E-01 -2.97863267E-01 -4.68593560E-01 -8.59409992E-03  7.37695324E-02
 -2.62104107E-15  8.50041882E-14 -1.76301820E-02 -5.72032927E-01 -3.87926380E-14
 -2.09402011E-13 -6.65328629E-02  1.81337707E+00  1.06219472E-13  6.25455101E-02
 -6.25455101E-02 -8.90259273E-15  4.36946602E-02  1.98036036E-02 -2.74107526E-03
 -3.48904680E-01 -4.98494376E-01  1.81895049E-01  1.85360899E-01  1.67009631E-01
  3.13133477E-01  2.62104107E-15 -8.50041882E-14 -1.76301820E-02  5.72032927E-01
 -3.87926380E-14  2.09402011E-13 -6.65328629E-02 -1.81337707E+00  1.06219472E-13
 -6.25455101E-02  6.25455101E-02  8.90259273E-15  4.36946602E-02 -1.98036036E-02
 -2.74107526E-03 -1.67009631E-01 -3.13133477E-01 -1.81895049E-01 -1.85360899E-01
  3.48904680E-01  4.98494376E-01 -4.93562446E-02  3.25961712E-01  5.19954495E-14
  8.17020492E-15 -8.09785862E-01 -7.41950445E-01 -2.95915580E-14 -1.12556139E-13
  1.56840260E+00  4.65942432E-02  4.65942432E-02 -9.78041585E-02  2.88538852E-15
 -1.55402618E-14  1.22332665E-16 -1.11350917E-01 -2.59159979E-01 -1.11350917E-01
 -2.59159979E-01 -1.11350917E-01 -2.59159979E-01  4.93562446E-02 -3.25961712E-01
  5.19954495E-14 -8.17020492E-15 -8.09785862E-01  7.41950445E-01 -2.95915580E-14
  1.12556139E-13  1.56840260E+00 -4.65942432E-02 -4.65942432E-02  9.78041585E-02
  2.88538852E-15  1.55402618E-14  1.22332665E-16  1.11350917E-01  2.59159979E-01
  1.11350917E-01  2.59159979E-01  1.11350917E-01  2.59159979E-01  1.45380473E-14
  4.20570578E-13  6.78622044E-01  1.00191393E-02  1.36345772E-13 -1.26040285E-12
 -9.31869716E-01  1.83126213E-01 -5.17121170E-14 -2.49961183E-02  2.49961183E-02
  3.02811700E-14  8.74856113E-02 -1.58489075E-01 -2.94421659E-03  1.09713438E-02
 -2.62876897E-01 -4.45858969E-01  1.05175045E+00  4.34887626E-01 -7.88873550E-01
 -1.45380473E-14 -4.20570578E-13  6.78622044E-01 -1.00191393E-02  1.36345772E-13
  1.26040285E-12 -9.31869716E-01 -1.83126213E-01 -5.17121170E-14  2.49961183E-02
 -2.49961183E-02 -3.02811700E-14  8.74856113E-02  1.58489075E-01 -2.94421659E-03
 -4.34887626E-01  7.88873550E-01  4.45858969E-01 -1.05175045E+00 -1.09713438E-02