3    
Iteration 4 Energy -5.07054445
O        0.8664157033   -1.3778808999    0.3178262117
H        1.6751590057   -1.8646660180    0.4883042294
H        1.1081461137   -0.4567542113    0.2030208726
