6    
Iteration 0 Energy -149.93317873
O        0.8559100000   -1.3823600000    0.3174600000
H        1.6752400000   -1.8477400000    0.4858000000
H        1.1176100000   -0.4684300000    0.2057500000
O       -1.0986300000   -0.8583700000    2.1731900000
H       -0.4031000000   -1.1460800000    1.5818400000
H       -1.0851100000    0.0968300000    2.1128200000
6    
Iteration 1 Energy -149.93923992
O        0.8151240910   -1.3397589108    0.3266451300
H        1.6435486609   -1.8464005683    0.5322028063
H        1.2103556455   -0.4465133269    0.1581136921
O       -1.1237255200   -0.8946770775    2.2036738584
H       -0.4231640569   -1.1700315232    1.5539698712
H       -1.0602188522    0.0912313749    2.1022546737
6    
Iteration 2 Energy -149.93966027
O        0.8338858413   -1.3141882045    0.3156815577
H        1.6238148480   -1.8617219390    0.5518824178
H        1.2496467044   -0.4367724755    0.1249397379
O       -1.1281328681   -0.8960864292    2.2156162010
H       -0.4483161347   -1.1857001344    1.5540378251
H       -1.0689783958    0.0883191493    2.1147023220
6    
Iteration 3 Energy -149.93989583
O        0.8352673084   -1.2946131557    0.3161911469
H        1.5990507775   -1.8621388961    0.5719986457
H        1.2906369473   -0.4458554663    0.1052034546
O       -1.1215283066   -0.9083390651    2.2179175237
H       -0.4581395828   -1.1701575949    1.5342007280
H       -1.0833671689    0.0749541758    2.1313485754
6    
Iteration 4 Energy -149.94005182
O        0.8369690547   -1.2734316981    0.3142824771
H        1.5686541347   -1.8702417068    0.5960571487
H        1.3386014149   -0.4567732869    0.0823450859
O       -1.1094809552   -0.9254065982    2.2183205418
H       -0.4589989398   -1.1405773736    1.5066850500
H       -1.1138247374    0.0602806300    2.1591697843
6    
Iteration 5 Energy -149.94014471
O        0.8427384951   -1.2578374651    0.3018371980
H        1.5406287170   -1.8825465037    0.6108455719
H        1.3880068573   -0.4711871263    0.0613751835
O       -1.0985502699   -0.9403068533    2.2217883042
H       -0.4528738438   -1.0998963076    1.4898372958
H       -1.1580299925    0.0456242248    2.1911766016
6    
Iteration 6 Energy -149.94017393
O        0.8443017238   -1.2535055253    0.2935659017
H        1.5280897758   -1.8914381659    0.6091095636
H        1.4074706293   -0.4770374491    0.0592396390
O       -1.0917154218   -0.9438436055    2.2235132607
H       -0.4419064859   -1.0806008056    1.4897071906
H       -1.1843202644    0.0402755215    2.2017246139
6    
Iteration 7 Energy -149.94019815
O        0.8459029480   -1.2508025475    0.2857342524
H        1.5166279014   -1.9043828752    0.5987959870
H        1.4222692697   -0.4791201751    0.0663647883
O       -1.0848398686   -0.9450119217    2.2278210045
H       -0.4288590994   -1.0623991860    1.4958514774
H       -1.2091812479    0.0355666261    2.2022927183
6    
Iteration 8 Energy -149.94024102
O        0.8460176857   -1.2434473608    0.2772633037
H        1.4964073661   -1.9247319887    0.5744581284
H        1.4447929782   -0.4803389185    0.0895920681
O       -1.0720846884   -0.9424795689    2.2360907070
H       -0.4090828427   -1.0455195176    1.5078189178
H       -1.2441306614    0.0303671617    2.1916372286
6    
Iteration 9 Energy -149.94041411
O        0.8516859253   -1.2018141455    0.2543413489
H        1.4023010734   -1.9956734483    0.4620622144
H        1.5445391026   -0.4991132508    0.1999374594
O       -1.0166221808   -0.9230398824    2.2749167803
H       -0.3461566842   -0.9756005678    1.5473337120
H       -1.3738276680   -0.0109092061    2.1382691974
6    
Iteration 10 Energy -149.94042534
O        0.9229473258   -1.0515494929    0.2508031986
H        1.0853795877   -2.0136405097    0.0863916921
H        1.8248922215   -0.7484579748    0.5196664027
O       -0.8626174790   -0.7789732596    2.3765357516
H       -0.2466208788   -0.7110891277    1.6021482952
H       -1.6620621361   -0.3024411392    2.0413166950
6    
Iteration 11 Energy -149.94085007
O        0.8761899172   -1.1019213394    0.2469269070
H        1.2071290839   -2.0333700609    0.2366797911
H        1.7146829142   -0.6055007651    0.4107910941
O       -0.9241844810   -0.8515803946    2.3447172301
H       -0.2668944396   -0.8667271233    1.6036911953
H       -1.5450039856   -0.1470514594    2.0340553011
6    
Iteration 12 Energy -149.94108230
O        0.8760169430   -1.0745842217    0.2592179084
H        1.1669451159   -2.0177468477    0.2170569027
H        1.7342510199   -0.6204603586    0.4398270845
O       -0.9122435972   -0.8437431908    2.3500243442
H       -0.2619976892   -0.8868080385    1.6047921611
H       -1.5410527888   -0.1628086895    2.0059432754
6    
Iteration 13 Energy -149.94122972
O        0.8891553099   -1.0101647649    0.2938522234
H        1.0485468720   -1.9615054177    0.0845063752
H        1.7935618434   -0.7263700770    0.5695715509
O       -0.8629130465   -0.7825129181    2.3720298468
H       -0.2220692497   -0.8576158246    1.6220689207
H       -1.5843630080   -0.2679829180    1.9348332420
6    
Iteration 14 Energy -149.94124005
O        0.8930985596   -1.0163109898    0.2857629606
H        1.0626436912   -1.9709290404    0.1009797116
H        1.7950808883   -0.7140046996    0.5488049270
O       -0.8703443962   -0.7904402425    2.3719971378
H       -0.2332940110   -0.8607181117    1.6180210540
H       -1.5852659804   -0.2537487635    1.9512963033
6    
Iteration 15 Energy -149.94124197
O        0.8907797065   -1.0195256203    0.2868095280
H        1.0684703732   -1.9723997026    0.1003279342
H        1.7901950334   -0.7097917621    0.5503373910
O       -0.8719081074   -0.7904555496    2.3712452640
H       -0.2331109390   -0.8648377101    1.6191436599
H       -1.5825073106   -0.2491415234    1.9489983092
6    
Iteration 16 Energy -149.94124349
O        0.8904851218   -1.0212263413    0.2886878363
H        1.0720089801   -1.9722598126    0.0964500640
H        1.7886520416   -0.7091353673    0.5537763629
O       -0.8723789700   -0.7888572701    2.3712861699
H       -0.2347870216   -0.8675937301    1.6186423020
H       -1.5820613964   -0.2470793304    1.9480193591
6    
Iteration 17 Energy -149.94124430
O        0.8904918079   -1.0241156563    0.2896348454
H        1.0785042637   -1.9734295442    0.0952758809
H        1.7867770072   -0.7061596899    0.5540323329
O       -0.8742663010   -0.7885838001    2.3712756315
H       -0.2385530396   -0.8717118350    1.6174953932
H       -1.5810349759   -0.2421513967    1.9491479513
6    
Iteration 18 Energy -149.94124434
O        0.8907363838   -1.0244325748    0.2896257036
H        1.0793573734   -1.9736575740    0.0954817520
H        1.7869155825   -0.7057852179    0.5534840636
O       -0.8746522076   -0.7887012909    2.3713444137
H       -0.2393888584   -0.8721335507    1.6172363090
H       -1.5810495099   -0.2414417209    1.9496897535
