6    
Scan Cycle 1/73 ; Rotation-A 1-3 = 0.00, Rotation-B 1-3 = 0.00, Rotation-C 1-3 = 0.00, Cartesian-X 1 = 0.00, Cartesian-Y 1 = 0.00, Cartesian-X 4 = 0.00, Cartesian-Y 4 = 0.00, Rotation-A 4-6 = 0.00, Rotation-B 4-6 = 0.00, Rotation-C 4-6 = 0.00 ; Iteration 7 Energy -152.02699702
O        0.0000034573    0.0000000000   -0.1804966379
H       -0.1251229597    0.0000000000    0.7607889842
H        0.9390043219    0.0000000000   -0.3044807926
O       -0.0000000035   -0.0000063263    2.9413961488
H        0.7549844541    0.5741742584    2.9413961488
H       -0.7556171761    0.5743249027    2.9413961488
6    
Scan Cycle 2/73 ; Rotation-A 1-3 = 0.00, Rotation-B 1-3 = -0.00, Rotation-C 1-3 = 0.00, Cartesian-X 1 = 0.00, Cartesian-Y 1 = 0.00, Cartesian-X 4 = -0.00, Cartesian-Y 4 = -0.00, Rotation-A 4-6 = 0.00, Rotation-B 4-6 = 0.00, Rotation-C 4-6 = 10.00 ; Iteration 5 Energy -152.02686562
O        0.0000034775    0.0000000000   -0.1794614740
H       -0.1273238743    0.0000000000    0.7616954816
H        0.9385272123    0.0000000000   -0.3054723360
O        0.0000120005    0.0001061978    2.9410794430
H        0.8433153776    0.4342897240    2.9410794430
H       -0.6444389151    0.6967569944    2.9410794430
6    
Scan Cycle 3/73 ; Rotation-A 1-3 = 0.00, Rotation-B 1-3 = -0.00, Rotation-C 1-3 = 0.00, Cartesian-X 1 = 0.00, Cartesian-Y 1 = 0.00, Cartesian-X 4 = 0.00, Cartesian-Y 4 = 0.00, Rotation-A 4-6 = 0.00, Rotation-B 4-6 = 0.00, Rotation-C 4-6 = 20.00 ; Iteration 5 Energy -152.02676269
O        0.0000034978    0.0000000000   -0.1777604237
H       -0.1295080255    0.0000000000    0.7632802345
H        0.9380696800    0.0000000000   -0.3057848336
O        0.0000422393    0.0002147495    2.9400883412
H        0.9060027866    0.2809784802    2.9400883412
H       -0.5139542119    0.7979441725    2.9400883412
6    
Scan Cycle 4/73 ; Rotation-A 1-3 = 0.00, Rotation-B 1-3 = -0.00, Rotation-C 1-3 = 0.00, Cartesian-X 1 = 0.00, Cartesian-Y 1 = 0.00, Cartesian-X 4 = 0.00, Cartesian-Y 4 = 0.00, Rotation-A 4-6 = 0.00, Rotation-B 4-6 = 0.00, Rotation-C 4-6 = 30.00 ; Iteration 5 Energy -152.02668953
O        0.0000035179    0.0000000000   -0.1751294583
H       -0.1316014265    0.0000000000    0.7658043397
H        0.9376310927    0.0000000000   -0.3050814199
O        0.0000899748    0.0003159099    2.9381355130
H        0.9410689633    0.1189925878    2.9381355130
H       -0.3680131470    0.8749435268    2.9381355130
6    
Scan Cycle 5/73 ; Rotation-A 1-3 = 0.00, Rotation-B 1-3 = -0.00, Rotation-C 1-3 = 0.00, Cartesian-X 1 = 0.00, Cartesian-Y 1 = 0.00, Cartesian-X 4 = 0.00, Cartesian-Y 4 = 0.00, Rotation-A 4-6 = 0.00, Rotation-B 4-6 = 0.00, Rotation-C 4-6 = 40.00 ; Iteration 5 Energy -152.02664443
O        0.0000035370    0.0000000000   -0.1717456820
H       -0.1335429564    0.0000000000    0.7690941510
H        0.9372228342    0.0000000000   -0.3034820402
O        0.0001541548    0.0004066905    2.9353778573
H        0.9473986817   -0.0466907208    2.9353778573
H       -0.2110073014    0.9254856721    2.9353778573
6    
Scan Cycle 6/73 ; Rotation-A 1-3 = 0.00, Rotation-B 1-3 = -0.00, Rotation-C 1-3 = -0.00, Cartesian-X 1 = 0.00, Cartesian-Y 1 = 0.00, Cartesian-X 4 = 0.00, Cartesian-Y 4 = 0.00, Rotation-A 4-6 = 0.00, Rotation-B 4-6 = 0.00, Rotation-C 4-6 = 50.00 ; Iteration 5 Energy -152.02662282
O        0.0000035540   -0.0000000000   -0.1680619996
H       -0.1352687955    0.0000000000    0.7726991424
H        0.9368609401   -0.0000000000   -0.3013826072
O        0.0002332668    0.0004845253    2.9322484881
H        0.9247800807   -0.2109609343    2.9322484881
H       -0.0476370705    0.9480818006    2.9322484881
6    
Scan Cycle 7/73 ; Rotation-A 1-3 = 0.00, Rotation-B 1-3 = -0.00, Rotation-C 1-3 = -0.00, Cartesian-X 1 = 0.00, Cartesian-Y 1 = -0.00, Cartesian-X 4 = 0.00, Cartesian-Y 4 = 0.00, Rotation-A 4-6 = 0.00, Rotation-B 4-6 = 0.00, Rotation-C 4-6 = 60.00 ; Iteration 4 Energy -152.02661840
O        0.0000035682   -0.0000000000   -0.1652555760
H       -0.1366814416   -0.0000000000    0.7754340119
H        0.9365541818   -0.0000000000   -0.2998712357
O        0.0004507462    0.0006282464    2.9298976000
H        0.8740348922   -0.3686836461    2.9298976000
H        0.1173369000    0.9420954525    2.9298976000
6    
Scan Cycle 8/73 ; Rotation-A 1-3 = 0.00, Rotation-B 1-3 = -0.00, Rotation-C 1-3 = -0.00, Cartesian-X 1 = 0.00, Cartesian-Y 1 = -0.00, Cartesian-X 4 = 0.00, Cartesian-Y 4 = 0.00, Rotation-A 4-6 = 0.00, Rotation-B 4-6 = 0.00, Rotation-C 4-6 = 70.00 ; Iteration 4 Energy -152.02662298
O        0.0000035795   -0.0000000000   -0.1623338693
H       -0.1377705828   -0.0000000000    0.7783142824
H        0.9363339920   -0.0000000000   -0.2979493005
O        0.0006907872    0.0007317103    2.9273229626
H        0.7966520296   -0.5150727410    2.9273229626
H        0.2788672662    0.9076569849    2.9273229626
6    
Scan Cycle 9/73 ; Rotation-A 1-3 = 0.00, Rotation-B 1-3 = -0.00, Rotation-C 1-3 = -0.00, Cartesian-X 1 = 0.00, Cartesian-Y 1 = -0.00, Cartesian-X 4 = 0.00, Cartesian-Y 4 = 0.00, Rotation-A 4-6 = 0.00, Rotation-B 4-6 = 0.00, Rotation-C 4-6 = 80.00 ; Iteration 4 Energy -152.02662927
O        0.0000035862   -0.0000000000   -0.1605609667
H       -0.1384363445   -0.0000000000    0.7800674238
H        0.9362032073   -0.0000000000   -0.2967866490
O        0.0009642371    0.0007929431    2.9257600640
H        0.6951842645   -0.6456163249    2.9257600640
H        0.4322420933    0.8456559560    2.9257600640
6    
Scan Cycle 10/73 ; Rotation-A 1-3 = 0.00, Rotation-B 1-3 = -0.00, Rotation-C 1-3 = -0.00, Cartesian-X 1 = 0.00, Cartesian-Y 1 = -0.00, Cartesian-X 4 = 0.00, Cartesian-Y 4 = 0.00, Rotation-A 4-6 = 0.00, Rotation-B 4-6 = 0.00, Rotation-C 4-6 = 90.00 ; Iteration 4 Energy -152.02663214
O        0.0000035882   -0.0000000000   -0.1591202045
H       -0.1386864425   -0.0000000000    0.7815051450
H        0.9361550466   -0.0000000000   -0.2955734264
O        0.0012464114    0.0008153226    2.9243961621
H        0.5725612083   -0.7564408031    2.9243961621
H        0.5725442963    0.7579784863    2.9243961621
6    
Scan Cycle 11/73 ; Rotation-A 1-3 = -0.00, Rotation-B 1-3 = -0.00, Rotation-C 1-3 = -0.00, Cartesian-X 1 = 0.00, Cartesian-Y 1 = -0.00, Cartesian-X 4 = 0.00, Cartesian-Y 4 = 0.00, Rotation-A 4-6 = 0.00, Rotation-B 4-6 = 0.00, Rotation-C 4-6 = 100.00 ; Iteration 4 Energy -152.02662960
O        0.0000035901   -0.0000000000   -0.1592939426
H       -0.1384469329   -0.0000000000    0.7813438717
H        0.9361992179   -0.0000000000   -0.2955235095
O        0.0015283482    0.0007911345    2.9244911937
H        0.4327450176   -0.8442012728    2.9244911937
H        0.6956544192    0.6471236450    2.9244911937
6    
Scan Cycle 12/73 ; Rotation-A 1-3 = -0.00, Rotation-B 1-3 = -0.00, Rotation-C 1-3 = -0.00, Cartesian-X 1 = 0.00, Cartesian-Y 1 = -0.00, Cartesian-X 4 = 0.00, Cartesian-Y 4 = 0.00, Rotation-A 4-6 = 0.00, Rotation-B 4-6 = 0.00, Rotation-C 4-6 = 110.00 ; Iteration 5 Energy -152.02662311
O        0.0000035928   -0.0000000000   -0.1609198283
H       -0.1377810829   -0.0000000000    0.7797462794
H        0.9363388408   -0.0000000000   -0.2965392115
O        0.0016425807    0.0007550801    2.9259042536
H        0.2797734979   -0.9062939192    2.9259042536
H        0.7975584170    0.5165211196    2.9259042536
6    
Scan Cycle 13/73 ; Rotation-A 1-3 = -0.00, Rotation-B 1-3 = -0.00, Rotation-C 1-3 = -0.00, Cartesian-X 1 = 0.00, Cartesian-Y 1 = -0.00, Cartesian-X 4 = 0.00, Cartesian-Y 4 = 0.00, Rotation-A 4-6 = 0.00, Rotation-B 4-6 = 0.00, Rotation-C 4-6 = 120.00 ; Iteration 4 Energy -152.02661874
O        0.0000036002   -0.0000000000   -0.1633813964
H       -0.1366932077   -0.0000000000    0.7773392501
H        0.9365776162   -0.0000000000   -0.2980050264
O        0.0018790818    0.0006410263    2.9280157246
H        0.1186278536   -0.9409695258    2.9280157246
H        0.8753400628    0.3699410379    2.9280157246
6    
Scan Cycle 14/73 ; Rotation-A 1-3 = -0.00, Rotation-B 1-3 = -0.00, Rotation-C 1-3 = -0.00, Cartesian-X 1 = 0.00, Cartesian-Y 1 = -0.00, Cartesian-X 4 = 0.00, Cartesian-Y 4 = 0.00, Rotation-A 4-6 = 0.00, Rotation-B 4-6 = 0.00, Rotation-C 4-6 = 130.00 ; Iteration 4 Energy -152.02662343
O        0.0000036115   -0.0000000000   -0.1666720281
H       -0.1352491700   -0.0000000000    0.7741168796
H        0.9368868397   -0.0000000000   -0.2999721064
O        0.0020906820    0.0004875082    2.9308424187
H       -0.0459698745   -0.9471869385    2.9308424187
H        0.9264929473    0.2119831152    2.9308424187
6    
Scan Cycle 15/73 ; Rotation-A 1-3 = -0.00, Rotation-B 1-3 = -0.00, Rotation-C 1-3 = -0.00, Cartesian-X 1 = 0.00, Cartesian-Y 1 = -0.00, Cartesian-X 4 = 0.00, Cartesian-Y 4 = 0.00, Rotation-A 4-6 = 0.00, Rotation-B 4-6 = 0.00, Rotation-C 4-6 = 140.00 ; Iteration 5 Energy -152.02664448
O        0.0000036244   -0.0000000000   -0.1712653540
H       -0.1335044193   -0.0000000000    0.7695900754
H        0.9372422536   -0.0000000000   -0.3029651365
O        0.0021679649    0.0004080426    2.9348801389
H       -0.2091660070   -0.9246947084    2.9348801389
H        0.9492988164    0.0475749810    2.9348801389
6    
Scan Cycle 16/73 ; Rotation-A 1-3 = -0.00, Rotation-B 1-3 = -0.00, Rotation-C 1-3 = -0.00, Cartesian-X 1 = 0.00, Cartesian-Y 1 = -0.00, Cartesian-X 4 = 0.00, Cartesian-Y 4 = 0.00, Rotation-A 4-6 = 0.00, Rotation-B 4-6 = 0.00, Rotation-C 4-6 = 150.00 ; Iteration 5 Energy -152.02668898
O        0.0000036402   -0.0000000000   -0.1746077202
H       -0.1315531685   -0.0000000000    0.7663420517
H        0.9376508569   -0.0000000000   -0.3045133938
O        0.0022289457    0.0003155574    2.9375930212
H       -0.3660677211   -0.8742986869    2.9375930212
H        0.9431026336   -0.1182558675    2.9375930212
6    
Scan Cycle 17/73 ; Rotation-A 1-3 = -0.00, Rotation-B 1-3 = -0.00, Rotation-C 1-3 = -0.00, Cartesian-X 1 = 0.00, Cartesian-Y 1 = -0.00, Cartesian-X 4 = 0.00, Cartesian-Y 4 = 0.00, Rotation-A 4-6 = 0.00, Rotation-B 4-6 = 0.00, Rotation-C 4-6 = 160.00 ; Iteration 5 Energy -152.02676158
O        0.0000036584   -0.0000000000   -0.1773693270
H       -0.1294522191   -0.0000000000    0.7636861334
H        0.9380912221   -0.0000000000   -0.3053414028
O        0.0022725994    0.0002132402    2.9396748658
H       -0.5119229010   -0.7974707468    2.9396748658
H        0.9081408389   -0.2804248147    2.9396748658
6    
Scan Cycle 18/73 ; Rotation-A 1-3 = -0.00, Rotation-B 1-3 = -0.00, Rotation-C 1-3 = -0.00, Cartesian-X 1 = 0.00, Cartesian-Y 1 = -0.00, Cartesian-X 4 = 0.00, Cartesian-Y 4 = 0.00, Rotation-A 4-6 = 0.00, Rotation-B 4-6 = 0.00, Rotation-C 4-6 = 170.00 ; Iteration 5 Energy -152.02686401
O        0.0000036782   -0.0000000000   -0.1793229943
H       -0.1272650678   -0.0000000000    0.7618470121
H        0.9385497052   -0.0000000000   -0.3052799014
O        0.0022983161    0.0001041527    2.9409186282
H       -0.6423404767   -0.6964811180    2.9409186282
H        0.8455220752   -0.4339518817    2.9409186282
6    
Scan Cycle 19/73 ; Rotation-A 1-3 = 0.00, Rotation-B 1-3 = -0.00, Rotation-C 1-3 = -0.00, Cartesian-X 1 = 0.00, Cartesian-Y 1 = -0.00, Cartesian-X 4 = 0.00, Cartesian-Y 4 = 0.00, Rotation-A 4-6 = -0.00, Rotation-B 4-6 = -0.00, Rotation-C 4-6 = -180.00 ; Iteration 5 Energy -152.02699494
O        0.0000037050   -0.0000000000   -0.1803780985
H       -0.1250448398   -0.0000000000    0.7609073572
H        0.9390052815   -0.0000000000   -0.3042848607
O        0.0023081041   -0.0000079883    2.9412518677
H       -0.7533352663   -0.5743669333    2.9412518677
H        0.7572063502   -0.5741942625    2.9412518677
6    
Scan Cycle 20/73 ; Rotation-A 1-3 = 0.00, Rotation-B 1-3 = -0.00, Rotation-C 1-3 = -0.00, Cartesian-X 1 = 0.00, Cartesian-Y 1 = -0.00, Cartesian-X 4 = 0.00, Cartesian-Y 4 = -0.00, Rotation-A 4-6 = -0.00, Rotation-B 4-6 = -0.00, Rotation-C 4-6 = -170.00 ; Iteration 5 Energy -152.02715014
O        0.0000037280   -0.0000000000   -0.1805571480
H       -0.1228780046   -0.0000000000    0.7608522507
H        0.9394655032   -0.0000000000   -0.3024652307
O        0.0022971935   -0.0001204962    2.9407233764
H       -0.8415675375   -0.4346336144    2.9407233764
H        0.6459798558   -0.6967604775    2.9407233764
6    
Scan Cycle 21/73 ; Rotation-A 1-3 = 0.00, Rotation-B 1-3 = -0.00, Rotation-C 1-3 = -0.00, Cartesian-X 1 = 0.00, Cartesian-Y 1 = -0.00, Cartesian-X 4 = 0.00, Cartesian-Y 4 = -0.00, Rotation-A 4-6 = -0.00, Rotation-B 4-6 = -0.00, Rotation-C 4-6 = -160.00 ; Iteration 5 Energy -152.02732286
O        0.0000037549   -0.0000000000   -0.1797780692
H       -0.1207842532   -0.0000000000    0.7617485039
H        0.9398971580   -0.0000000000   -0.2997496601
O        0.0022682349   -0.0002292825    2.9392597421
H       -0.9042309322   -0.2816262674    2.9392597421
H        0.5152411755   -0.7981106989    2.9392597421
6    
Scan Cycle 22/73 ; Rotation-A 1-3 = -0.00, Rotation-B 1-3 = -0.00, Rotation-C 1-3 = -0.00, Cartesian-X 1 = 0.00, Cartesian-Y 1 = -0.00, Cartesian-X 4 = 0.00, Cartesian-Y 4 = -0.00, Rotation-A 4-6 = -0.00, Rotation-B 4-6 = -0.00, Rotation-C 4-6 = -150.00 ; Iteration 5 Energy -152.02750424
O        0.0000037834   -0.0000000000   -0.1782227081
H       -0.1188245181   -0.0000000000    0.7634159237
H        0.9402987297   -0.0000000000   -0.2963793413
O        0.0022216965   -0.0003310387    2.9370620422
H       -0.9393801921   -0.1199479642    2.9370620422
H        0.3689877370   -0.8751783954    2.9370620422
6    
Scan Cycle 23/73 ; Rotation-A 1-3 = 0.00, Rotation-B 1-3 = -0.00, Rotation-C 1-3 = -0.00, Cartesian-X 1 = 0.00, Cartesian-Y 1 = -0.00, Cartesian-X 4 = 0.00, Cartesian-Y 4 = -0.00, Rotation-A 4-6 = -0.00, Rotation-B 4-6 = -0.00, Rotation-C 4-6 = -140.00 ; Iteration 5 Energy -152.02768406
O        0.0000037971   -0.0000000000   -0.1766470580
H       -0.1171183933   -0.0000000000    0.7650986338
H        0.9406654702   -0.0000000000   -0.2932274145
O        0.0021496455   -0.0004249376    2.9349252797
H       -0.9458861736    0.0454360767    2.9349252797
H        0.2116229095   -0.9256841285    2.9349252797
6    
Scan Cycle 24/73 ; Rotation-A 1-3 = 0.00, Rotation-B 1-3 = -0.00, Rotation-C 1-3 = -0.00, Cartesian-X 1 = 0.00, Cartesian-Y 1 = -0.00, Cartesian-X 4 = 0.00, Cartesian-Y 4 = -0.00, Rotation-A 4-6 = -0.00, Rotation-B 4-6 = -0.00, Rotation-C 4-6 = -130.00 ; Iteration 5 Energy -152.02785133
O        0.0000038365   -0.0000000000   -0.1743986520
H       -0.1154950484   -0.0000000000    0.7674241259
H        0.9409607629   -0.0000000000   -0.2894647885
O        0.0020676177   -0.0005101382    2.9321464384
H       -0.9236181138    0.2094618584    2.9321464384
H        0.0478756522   -0.9481449090    2.9321464384
6    
Scan Cycle 25/73 ; Rotation-A 1-3 = -0.00, Rotation-B 1-3 = -0.00, Rotation-C 1-3 = -0.00, Cartesian-X 1 = 0.00, Cartesian-Y 1 = -0.00, Cartesian-X 4 = 0.00, Cartesian-Y 4 = -0.00, Rotation-A 4-6 = -0.00, Rotation-B 4-6 = -0.00, Rotation-C 4-6 = -120.00 ; Iteration 3 Energy -152.02799722
O        0.0000038757   -0.0000000000   -0.1731735284
H       -0.1144282496   -0.0000000000    0.7687250948
H        0.9412126640   -0.0000000000   -0.2872609221
O        0.0015448433   -0.0008528043    2.9305697855
H       -0.8734453723    0.3668878853    2.9305697855
H       -0.1174778014   -0.9421063721    2.9305697855
6    
Scan Cycle 26/73 ; Rotation-A 1-3 = -0.00, Rotation-B 1-3 = -0.00, Rotation-C 1-3 = -0.00, Cartesian-X 1 = 0.00, Cartesian-Y 1 = -0.00, Cartesian-X 4 = 0.00, Cartesian-Y 4 = -0.00, Rotation-A 4-6 = -0.00, Rotation-B 4-6 = -0.00, Rotation-C 4-6 = -110.00 ; Iteration 3 Energy -152.02810997
O        0.0000038984   -0.0000000000   -0.1714685801
H       -0.1135123278   -0.0000000000    0.7704850733
H        0.9413942195   -0.0000000000   -0.2847033271
O        0.0009736006   -0.0011017404    2.9285622782
H       -0.7967815897    0.5131261814    2.9285622782
H       -0.2795297786   -0.9074791341    2.9285622782
6    
Scan Cycle 27/73 ; Rotation-A 1-3 = -0.00, Rotation-B 1-3 = -0.00, Rotation-C 1-3 = -0.00, Cartesian-X 1 = 0.00, Cartesian-Y 1 = -0.00, Cartesian-X 4 = 0.00, Cartesian-Y 4 = -0.00, Rotation-A 4-6 = -0.00, Rotation-B 4-6 = -0.00, Rotation-C 4-6 = -100.00 ; Iteration 5 Energy -152.02817970
O        0.0000039041   -0.0000000000   -0.1694305227
H       -0.1128147437   -0.0000000000    0.7725556799
H        0.9415041010   -0.0000000000   -0.2820063546
O        0.0008619014   -0.0011299651    2.9262937328
H       -0.6953550526    0.6438917986    2.9262937328
H       -0.4327515735   -0.8451679632    2.9262937328
6    
Scan Cycle 28/73 ; Rotation-A 1-3 = 0.00, Rotation-B 1-3 = -0.00, Rotation-C 1-3 = -0.00, Cartesian-X 1 = 0.00, Cartesian-Y 1 = -0.00, Cartesian-X 4 = 0.00, Cartesian-Y 4 = -0.00, Rotation-A 4-6 = -0.00, Rotation-B 4-6 = -0.00, Rotation-C 4-6 = -90.00 ; Iteration 5 Energy -152.02820327
O        0.0000039048   -0.0000000000   -0.1688544310
H       -0.1126083006   -0.0000000000    0.7731437457
H        0.9415422049   -0.0000000000   -0.2812368852
O        0.0007464424   -0.0011386633    2.9256491905
H       -0.5728497851    0.7549661578    2.9256491905
H       -0.5728279857   -0.7571265028    2.9256491905
6    
Scan Cycle 29/73 ; Rotation-A 1-3 = 0.00, Rotation-B 1-3 = -0.00, Rotation-C 1-3 = -0.00, Cartesian-X 1 = 0.00, Cartesian-Y 1 = -0.00, Cartesian-X 4 = 0.00, Cartesian-Y 4 = -0.00, Rotation-A 4-6 = -0.00, Rotation-B 4-6 = -0.00, Rotation-C 4-6 = -80.00 ; Iteration 5 Energy -152.02817907
O        0.0000039054   -0.0000000000   -0.1690259200
H       -0.1128113529   -0.0000000000    0.7729641167
H        0.9415081442   -0.0000000000   -0.2815984666
O        0.0006308641   -0.0011279853    2.9258867568
H       -0.4330104826    0.8430266431    2.9258867568
H       -0.6955654631   -0.6460203235    2.9258867568
6    
Scan Cycle 30/73 ; Rotation-A 1-3 = 0.00, Rotation-B 1-3 = -0.00, Rotation-C 1-3 = -0.00, Cartesian-X 1 = 0.00, Cartesian-Y 1 = -0.00, Cartesian-X 4 = 0.00, Cartesian-Y 4 = -0.00, Rotation-A 4-6 = -0.00, Rotation-B 4-6 = -0.00, Rotation-C 4-6 = -70.00 ; Iteration 5 Energy -152.02810887
O        0.0000039087   -0.0000000000   -0.1699186080
H       -0.1133660210   -0.0000000000    0.7720396087
H        0.9413968246   -0.0000000000   -0.2830060746
O        0.0005193300   -0.0010973513    2.9269616916
H       -0.2800798010    0.9054435079    2.9269616916
H       -0.7971768710   -0.5152202588    2.9269616916
6    
Scan Cycle 31/73 ; Rotation-A 1-3 = 0.00, Rotation-B 1-3 = -0.00, Rotation-C 1-3 = -0.00, Cartesian-X 1 = 0.00, Cartesian-Y 1 = -0.00, Cartesian-X 4 = 0.00, Cartesian-Y 4 = -0.00, Rotation-A 4-6 = -0.00, Rotation-B 4-6 = -0.00, Rotation-C 4-6 = -60.00 ; Iteration 5 Energy -152.02799770
O        0.0000039188   -0.0000000000   -0.1714171605
H       -0.1142933710   -0.0000000000    0.7704887441
H        0.9412144223   -0.0000000000   -0.2853669376
O        0.0004148801   -0.0010480619    2.9287651183
H       -0.1187304761    0.9403743218    2.9287651183
H       -0.8745428563   -0.3686632199    2.9287651183
6    
Scan Cycle 32/73 ; Rotation-A 1-3 = 0.00, Rotation-B 1-3 = -0.00, Rotation-C 1-3 = -0.00, Cartesian-X 1 = 0.00, Cartesian-Y 1 = -0.00, Cartesian-X 4 = 0.00, Cartesian-Y 4 = -0.00, Rotation-A 4-6 = -0.00, Rotation-B 4-6 = -0.00, Rotation-C 4-6 = -50.00 ; Iteration 5 Energy -152.02785339
O        0.0000039403   -0.0000000000   -0.1732984067
H       -0.1155593688   -0.0000000000    0.7685369805
H        0.9409655289   -0.0000000000   -0.2884250056
O        0.0003196670   -0.0009814049    2.9310621443
H        0.0461722302    0.9468034823    2.9310621443
H       -0.9252560561   -0.2108253873    2.9310621443
6    
Scan Cycle 33/73 ; Rotation-A 1-3 = 0.00, Rotation-B 1-3 = -0.00, Rotation-C 1-3 = -0.00, Cartesian-X 1 = 0.00, Cartesian-Y 1 = -0.00, Cartesian-X 4 = 0.00, Cartesian-Y 4 = -0.00, Rotation-A 4-6 = -0.00, Rotation-B 4-6 = -0.00, Rotation-C 4-6 = -40.00 ; Iteration 5 Energy -152.02768570
O        0.0000039757   -0.0000000000   -0.1752723834
H       -0.1171098211   -0.0000000000    0.7664752458
H        0.9406534779   -0.0000000000   -0.2918373077
O        0.0002348372   -0.0008979520    2.9335448155
H        0.2096856273    0.9245570563    2.9335448155
H       -0.9477326433   -0.0465592823    2.9335448155
6    
Scan Cycle 34/73 ; Rotation-A 1-3 = -0.00, Rotation-B 1-3 = -0.00, Rotation-C 1-3 = -0.00, Cartesian-X 1 = 0.00, Cartesian-Y 1 = -0.00, Cartesian-X 4 = 0.00, Cartesian-Y 4 = -0.00, Rotation-A 4-6 = -0.00, Rotation-B 4-6 = -0.00, Rotation-C 4-6 = -30.00 ; Iteration 5 Energy -152.02750546
O        0.0000039811   -0.0000000000   -0.1771129278
H       -0.1187693526   -0.0000000000    0.7645158667
H        0.9402778281   -0.0000000000   -0.2952089781
O        0.0001744763   -0.0007961118    2.9359353468
H        0.3669685842    0.8741624415    2.9359353468
H       -0.9413295884    0.1189291503    2.9359353468
6    
Scan Cycle 35/73 ; Rotation-A 1-3 = 0.00, Rotation-B 1-3 = -0.00, Rotation-C 1-3 = -0.00, Cartesian-X 1 = 0.00, Cartesian-Y 1 = -0.00, Cartesian-X 4 = 0.00, Cartesian-Y 4 = -0.00, Rotation-A 4-6 = -0.00, Rotation-B 4-6 = -0.00, Rotation-C 4-6 = -20.00 ; Iteration 5 Energy -152.02732365
O        0.0000040126   -0.0000000000   -0.1791792146
H       -0.1208124216   -0.0000000000    0.7623410000
H        0.9398821456   -0.0000000000   -0.2991748065
O        0.0001316513   -0.0006931801    2.9386710073
H        0.5131600597    0.7972899287    2.9386710073
H       -0.9062422224    0.2807850446    2.9386710073
6    
Scan Cycle 36/73 ; Rotation-A 1-3 = -0.00, Rotation-B 1-3 = -0.00, Rotation-C 1-3 = -0.00, Cartesian-X 1 = 0.00, Cartesian-Y 1 = -0.00, Cartesian-X 4 = 0.00, Cartesian-Y 4 = -0.00, Rotation-A 4-6 = -0.00, Rotation-B 4-6 = -0.00, Rotation-C 4-6 = -10.00 ; Iteration 5 Energy -152.02715050
O        0.0000040393   -0.0000000000   -0.1800777083
H       -0.1229176626   -0.0000000000    0.7613230834
H        0.9394482371   -0.0000000000   -0.3020213189
O        0.0001070579   -0.0005838044    2.9402586481
H        0.6438549420    0.6961630005    2.9402586481
H       -0.8436157670    0.4340054246    2.9402586481
6    
Scan Cycle 37/73 ; Rotation-A 1-3 = -0.00, Rotation-B 1-3 = -0.00, Rotation-C 1-3 = -0.00, Cartesian-X 1 = 0.00, Cartesian-Y 1 = -0.00, Cartesian-X 4 = 0.00, Cartesian-Y 4 = -0.00, Rotation-A 4-6 = 0.00, Rotation-B 4-6 = 0.00, Rotation-C 4-6 = 0.00 ; Iteration 5 Energy -152.02699488
O        0.0000040634   -0.0000000000   -0.1802087518
H       -0.1251051657   -0.0000000000    0.7610690565
H        0.9389924669   -0.0000000000   -0.3041734899
O        0.0001008914   -0.0004712052    2.9411043953
H        0.7550834357    0.5737823717    2.9411043953
H       -0.7554008057    0.5739127476    2.9411043953
6    
Scan Cycle 38/73 ; Rotation-A 1-3 = -0.00, Rotation-B 1-3 = -0.00, Rotation-C 1-3 = -0.00, Cartesian-X 1 = 0.00, Cartesian-Y 1 = -0.00, Cartesian-X 4 = 0.00, Cartesian-Y 4 = -0.00, Rotation-A 4-6 = 0.00, Rotation-B 4-6 = 0.00, Rotation-C 4-6 = 10.00 ; Iteration 5 Energy -152.02686357
O        0.0000040849   -0.0000000000   -0.1794820097
H       -0.1273204244   -0.0000000000    0.7616736195
H        0.9385282552   -0.0000000000   -0.3054910055
O        0.0001130849   -0.0003588115    2.9410997989
H        0.8434170805    0.4338219409    2.9410997989
H       -0.6443400982    0.6962900187    2.9410997989
6    
Scan Cycle 39/73 ; Rotation-A 1-3 = 0.00, Rotation-B 1-3 = -0.00, Rotation-C 1-3 = -0.00, Cartesian-X 1 = 0.00, Cartesian-Y 1 = -0.00, Cartesian-X 4 = 0.00, Cartesian-Y 4 = -0.00, Rotation-A 4-6 = 0.00, Rotation-B 4-6 = 0.00, Rotation-C 4-6 = 20.00 ; Iteration 5 Energy -152.02676078
O        0.0000041053   -0.0000000000   -0.1778266865
H       -0.1295044910   -0.0000000000    0.7632125843
H        0.9380707592   -0.0000000000   -0.3058491943
O        0.0001433283   -0.0002502571    2.9401544325
H        0.9061042892    0.2805124979    2.9401544325
H       -0.5138537567    0.7974784813    2.9401544325
6    
Scan Cycle 40/73 ; Rotation-A 1-3 = 0.00, Rotation-B 1-3 = -0.00, Rotation-C 1-3 = -0.00, Cartesian-X 1 = 0.00, Cartesian-Y 1 = -0.00, Cartesian-X 4 = 0.00, Cartesian-Y 4 = -0.00, Rotation-A 4-6 = 0.00, Rotation-B 4-6 = 0.00, Rotation-C 4-6 = 30.00 ; Iteration 5 Energy -152.02668782
O        0.0000041254   -0.0000000000   -0.1751960179
H       -0.1315973444   -0.0000000000    0.7657365193
H        0.9376323134   -0.0000000000   -0.3051455372
O        0.0001910645   -0.0001490978    2.9382016788
H        0.9411701259    0.1185267813    2.9382016788
H       -0.3679126486    0.8744780541    2.9382016788
6    
Scan Cycle 41/73 ; Rotation-A 1-3 = 0.00, Rotation-B 1-3 = -0.00, Rotation-C 1-3 = -0.00, Cartesian-X 1 = 0.00, Cartesian-Y 1 = -0.00, Cartesian-X 4 = 0.00, Cartesian-Y 4 = -0.00, Rotation-A 4-6 = 0.00, Rotation-B 4-6 = 0.00, Rotation-C 4-6 = 40.00 ; Iteration 5 Energy -152.02664296
O        0.0000041445   -0.0000000000   -0.1718026564
H       -0.1335385048   -0.0000000000    0.7690360740
H        0.9372242735   -0.0000000000   -0.3035362333
O        0.0002552440   -0.0000583147    2.9354342721
H        0.9474997899   -0.0471563463    2.9354342721
H       -0.2109066649    0.9250203595    2.9354342721
6    
Scan Cycle 42/73 ; Rotation-A 1-3 = 0.00, Rotation-B 1-3 = -0.00, Rotation-C 1-3 = -0.00, Cartesian-X 1 = 0.00, Cartesian-Y 1 = -0.00, Cartesian-X 4 = 0.00, Cartesian-Y 4 = -0.00, Rotation-A 4-6 = 0.00, Rotation-B 4-6 = 0.00, Rotation-C 4-6 = 50.00 ; Iteration 5 Energy -152.02662165
O        0.0000041615   -0.0000000000   -0.1681070758
H       -0.1352642276   -0.0000000000    0.7726531016
H        0.9368623921   -0.0000000000   -0.3014247232
O        0.0003343519    0.0000195249    2.9322928993
H        0.9248811259   -0.2114262531    2.9322928993
H       -0.0475362014    0.9476166014    2.9322928993
6    
Scan Cycle 43/73 ; Rotation-A 1-3 = 0.00, Rotation-B 1-3 = -0.00, Rotation-C 1-3 = 0.00, Cartesian-X 1 = 0.00, Cartesian-Y 1 = -0.00, Cartesian-X 4 = 0.00, Cartesian-Y 4 = 0.00, Rotation-A 4-6 = 0.00, Rotation-B 4-6 = 0.00, Rotation-C 4-6 = 60.00 ; Iteration 4 Energy -152.02661756
O        0.0000041757   -0.0000000000   -0.1652917465
H       -0.1366770810   -0.0000000000    0.7753972866
H        0.9365554048   -0.0000000000   -0.2999043339
O        0.0005518325    0.0001632424    2.9299329314
H        0.8741358683   -0.3691488998    2.9299329314
H        0.1174377637    0.9416303201    2.9299329314
6    
Scan Cycle 44/73 ; Rotation-A 1-3 = 0.00, Rotation-B 1-3 = -0.00, Rotation-C 1-3 = 0.00, Cartesian-X 1 = 0.00, Cartesian-Y 1 = -0.00, Cartesian-X 4 = 0.00, Cartesian-Y 4 = 0.00, Rotation-A 4-6 = 0.00, Rotation-B 4-6 = 0.00, Rotation-C 4-6 = 70.00 ; Iteration 4 Energy -152.02662250
O        0.0000041870   -0.0000000000   -0.1623567064
H       -0.1377667300   -0.0000000000    0.7782912830
H        0.9363352573   -0.0000000000   -0.2979693980
O        0.0007918765    0.0002666884    2.9273449406
H        0.7967528164   -0.5155378688    2.9273449406
H        0.2789680612    0.9071918713    2.9273449406
6    
Scan Cycle 45/73 ; Rotation-A 1-3 = 0.00, Rotation-B 1-3 = -0.00, Rotation-C 1-3 = 0.00, Cartesian-X 1 = 0.00, Cartesian-Y 1 = -0.00, Cartesian-X 4 = 0.00, Cartesian-Y 4 = 0.00, Rotation-A 4-6 = 0.00, Rotation-B 4-6 = 0.00, Rotation-C 4-6 = 80.00 ; Iteration 4 Energy -152.02662917
O        0.0000041937   -0.0000000000   -0.1605739549
H       -0.1384331236   -0.0000000000    0.7800544048
H        0.9362042892   -0.0000000000   -0.2967973721
O        0.0010653441    0.0003279196    2.9257723076
H        0.6952855619   -0.6460815066    2.9257723076
H        0.4323432915    0.8451905187    2.9257723076
6    
Scan Cycle 46/73 ; Rotation-A 1-3 = 0.00, Rotation-B 1-3 = -0.00, Rotation-C 1-3 = 0.00, Cartesian-X 1 = 0.00, Cartesian-Y 1 = -0.00, Cartesian-X 4 = 0.00, Cartesian-Y 4 = 0.00, Rotation-A 4-6 = 0.00, Rotation-B 4-6 = 0.00, Rotation-C 4-6 = 90.00 ; Iteration 4 Energy -152.02663243
O        0.0000041958   -0.0000000000   -0.1591170176
H       -0.1386839875   -0.0000000000    0.7815088214
H        0.9361560522   -0.0000000000   -0.2955684421
O        0.0013475179    0.0003503037    2.9243922129
H        0.5726625210   -0.7569058925    2.9243922129
H        0.5726454909    0.7575130522    2.9243922129
6    
Scan Cycle 47/73 ; Rotation-A 1-3 = 0.00, Rotation-B 1-3 = -0.00, Rotation-C 1-3 = 0.00, Cartesian-X 1 = 0.00, Cartesian-Y 1 = -0.00, Cartesian-X 4 = 0.00, Cartesian-Y 4 = 0.00, Rotation-A 4-6 = 0.00, Rotation-B 4-6 = 0.00, Rotation-C 4-6 = 100.00 ; Iteration 4 Energy -152.02663025
O        0.0000041977   -0.0000000000   -0.1592767905
H       -0.1384452160   -0.0000000000    0.7813615951
H        0.9362000774   -0.0000000000   -0.2955051841
O        0.0016294353    0.0003261258    2.9244734600
H        0.4328465485   -0.8446661644    2.9244734600
H        0.6957558295    0.6466582653    2.9244734600
6    
Scan Cycle 48/73 ; Rotation-A 1-3 = 0.00, Rotation-B 1-3 = -0.00, Rotation-C 1-3 = 0.00, Cartesian-X 1 = 0.00, Cartesian-Y 1 = -0.00, Cartesian-X 4 = 0.00, Cartesian-Y 4 = 0.00, Rotation-A 4-6 = 0.00, Rotation-B 4-6 = 0.00, Rotation-C 4-6 = 110.00 ; Iteration 5 Energy -152.02662410
O        0.0000042004   -0.0000000000   -0.1608877308
H       -0.1377799018   -0.0000000000    0.7797794475
H        0.9363396093   -0.0000000000   -0.2965061812
O        0.0017436688    0.0002900957    2.9258714883
H        0.2798754879   -0.9067587810    2.9258714883
H        0.7976600419    0.5160553696    2.9258714883
6    
Scan Cycle 49/73 ; Rotation-A 1-3 = 0.00, Rotation-B 1-3 = -0.00, Rotation-C 1-3 = 0.00, Cartesian-X 1 = 0.00, Cartesian-Y 1 = -0.00, Cartesian-X 4 = 0.00, Cartesian-Y 4 = 0.00, Rotation-A 4-6 = 0.00, Rotation-B 4-6 = 0.00, Rotation-C 4-6 = 120.00 ; Iteration 4 Energy -152.02662004
O        0.0000042077   -0.0000000000   -0.1633381611
H       -0.1366924342   -0.0000000000    0.7773837387
H        0.9365782349   -0.0000000000   -0.2979610996