3    
Climbing Image - Chain 29 Image 4 Energy   -93.2928248543 (+62.528 kcal/mol) RMSGrad 0.011 eV/Ang
C       -0.0584165344   -0.6833349866   -0.0000000000
N       -0.6436357944    0.3768153136    0.0000000000
H        0.7020083255    0.3065365521    0.0000000000
