18   
Iteration 0 Energy -30.43748291
O        0.8559100000   -1.3823600000    0.3174600000
H        1.6752400000   -1.8477400000    0.4858000000
H        1.1176100000   -0.4684300000    0.2057500000
O       -1.0986300000   -0.8583700000    2.1731900000
H       -0.4031000000   -1.1460800000    1.5818400000
H       -1.0851100000    0.0968300000    2.1128200000
O        1.8644800000    1.2201800000    1.3331100000
H        2.0104700000    1.8829200000    0.6580600000
H        2.6420500000    0.6632600000    1.2947900000
O        0.4360100000    0.8591100000   -1.7990100000
H        1.2952700000    0.5943600000   -1.4706600000
H        0.1355600000    0.1112200000   -2.3153700000
O       -0.8009300000   -2.0911300000   -1.5730000000
H       -0.2203200000   -1.8297700000   -0.8582800000
H       -0.3280600000   -1.8458100000   -2.3682600000
O       -1.4967600000    2.2679100000   -0.3295400000
H       -0.8467900000    1.6940800000   -0.7351300000
H       -2.3252600000    1.7984600000   -0.4267000000
18   
Iteration 1 Energy -30.45247805
O        0.9125521241   -1.3289182744    0.3188183189
H        1.7140460330   -1.8289559806    0.4782799349
H        1.1041209644   -0.3844686507    0.4385735680
O       -1.1313273594   -0.8342517864    2.2029733255
H       -0.4668930134   -1.1798222997    1.5958110581
H       -1.0874072722    0.1210322922    2.1244173652
O        1.8920563683    1.1124759733    1.2278573747
H        1.9078014264    1.8638032673    0.6287403320
H        2.7732370676    0.7342266189    1.2492494447
O        0.4871557044    0.8473749885   -1.7778181572
H        1.3484564664    0.4928768671   -1.5550293425
H        0.0128304939    0.1604419413   -2.2560698800
O       -0.8163731846   -2.0788063495   -1.6474946137
H       -0.2946485398   -1.8334101300   -0.8682568452
H       -0.2701951604   -1.9189999180   -2.4176761936
O       -1.5040133459    2.2653182523   -0.3002825155
H       -0.8256393175    1.7509587950   -0.7547124967
H       -2.3197554845    1.7696284444   -0.3908144546
18   
Iteration 2 Energy -30.45673988
O        0.9615135339   -1.2965730641    0.3294378332
H        1.7490921446   -1.8200601880    0.4799378137
H        1.1440665008   -0.3667144194    0.5520314847
O       -1.1574020948   -0.8163922626    2.2284389763
H       -0.5161473784   -1.1957858406    1.6160899016
H       -1.0897011780    0.1357263039    2.1299899167
O        1.9110624499    1.0719674634    1.1835023748
H        1.8501207095    1.8453705357    0.6159283989
H        2.8297105272    0.7989713532    1.2326764693
O        0.5093961623    0.8396986550   -1.7740969575
H        1.3645234534    0.4419051265   -1.6053503901
H       -0.0367089063    0.1828313087   -2.2167696157
O       -0.8415721362   -2.0799467035   -1.7133596634
H       -0.3651497906   -1.8515824759   -0.9000851278
H       -0.2389445136   -1.9601914486   -2.4476516659
O       -1.5065978891    2.2643969290   -0.2801336834
H       -0.8200407447    1.7860565923   -0.7617121949
H       -2.3112168791    1.7508261859   -0.3723076476
18   
Iteration 3 Energy -30.46128376
O        0.9925096281   -1.2952575006    0.2941703325
H        1.7545822889   -1.8447611481    0.4736675617
H        1.1626833586   -0.4291293254    0.7213339827
O       -1.1920934537   -0.7864773582    2.2598701300
H       -0.5883992087   -1.2058486991    1.6354430210
H       -1.1003732371    0.1606156698    2.1335229945
O        1.9898192836    1.0485218259    1.1164945904
H        1.7274043663    1.8082822216    0.5903852046
H        2.9443552300    1.0361854808    1.2147844361
O        0.5361873855    0.8210648978   -1.7667639535
H        1.3479021942    0.3152216616   -1.6959313377
H       -0.1424793949    0.2322215470   -2.1101434457
O       -0.8479529390   -2.0411200325   -1.8042726857
H       -0.4259238852   -1.8327216643   -0.9587783421
H       -0.1657005182   -2.0659013677   -2.4762728251
O       -1.4907607817    2.2522381955   -0.2306108678
H       -0.7941851535    1.8530670457   -0.7675819094
H       -2.2715711923    1.7043026012   -0.3327506634
18   
Iteration 4 Energy -30.46395111
O        1.0094761852   -1.3132503220    0.2735994410
H        1.7290573038   -1.8995503641    0.5080941478
H        1.2036238814   -0.4688340910    0.7313446336
O       -1.2085319636   -0.7664975960    2.2697887846
H       -0.6347469713   -1.2046676419    1.6317953223
H       -1.1098761984    0.1777400480    2.1274561950
O        2.0464772213    1.0558780026    1.0996446416
H        1.6445258239    1.7591413514    0.5833684555
H        2.9806504007    1.2390746444    1.2088808757
O        0.5172181626    0.8028057163   -1.7680932986
H        1.3021469408    0.2527498815   -1.7151097073
H       -0.2028259557    0.2267572102   -2.0443944573
O       -0.8365634227   -1.9814496559   -1.8636161402
H       -0.4282656157   -1.8009516853   -1.0069018969
H       -0.1275630241   -2.1406582462   -2.4881422615
O       -1.4592555992    2.2347598502   -0.1872742194
H       -0.7627585019    1.8858432455   -0.7575463355
H       -2.2267846964    1.6716137032   -0.3063279575
18   
Iteration 5 Energy -30.46755808
O        1.0609397329   -1.3694390099    0.2381396836
H        1.6096687192   -2.0596819037    0.6188007987
H        1.3481822024   -0.5641402139    0.7014035675
O       -1.2341712896   -0.7132108509    2.2697328017
H       -0.7320966849   -1.1732563428    1.5922378639
H       -1.1446440284    0.2268217944    2.0960872345
O        2.1936689805    1.1234492213    1.0426415519
H        1.5078558999    1.5751653651    0.5413570946
H        2.8847026604    1.7648750681    1.2039612802
O        0.4018004559    0.7303846556   -1.7792581977
H        1.1553956076    0.1386963572   -1.6897880585
H       -0.3512878555    0.1352010024   -1.8969305889
O       -0.7188089402   -1.7610122993   -2.0119545342
H       -0.3471036709   -1.6984590394   -1.1247293294
H       -0.1165724791   -2.3221659391   -2.5055538042
O       -1.3302845859    2.1639206392   -0.0562103539
H       -0.6669491977    1.9386978868   -0.7198045278
H       -2.0842915557    1.5946576600   -0.2235662593
18   
Iteration 6 Energy -30.47012094
O        1.0322749736   -1.3749279460    0.2558856308
H        1.6035197701   -2.0498090921    0.6294303651
H        1.3423381173   -0.5384440905    0.6395433551
O       -1.2151424990   -0.7240836486    2.2492140627
H       -0.6879880200   -1.1588472906    1.5730686148
H       -1.1442419654    0.2204291398    2.0915028932
O        2.1196539005    1.1020435418    1.0524335175
H        1.5018124772    1.6434305856    0.5514782244
H        2.8990582287    1.6393394292    1.1996933315
O        0.4059265245    0.7743038040   -1.7762152778
H        1.1887033216    0.2321498500   -1.6437154024
H       -0.2926352885    0.1362459544   -1.9795811831
O       -0.7482503124   -1.8008617648   -1.9399117607
H       -0.3219144149   -1.7593799698   -1.0743345139
H       -0.1428957362   -2.2815269437   -2.5080075737
O       -1.3247937129    2.1622470635   -0.0707815310
H       -0.6758044316    1.8852058097   -0.7303778497
H       -2.1036169618    1.6229896190   -0.2227586799
18   
Iteration 7 Energy -30.47310045
O        1.0173987421   -1.4076382862    0.2823846610
H        1.5289508605   -2.0924341496    0.7174296783
H        1.4021580664   -0.5589217114    0.5456193492
O       -1.1837544947   -0.7124666150    2.1971816124
H       -0.6400464908   -1.0979255848    1.5032767629
H       -1.1665136329    0.2375802125    2.0571114740
O        2.0419208598    1.1076963162    1.0079055918
H        1.4232384270    1.6773097303    0.5375861579
H        2.8202486803    1.6434056935    1.1808194048
O        0.3551695347    0.7927337343   -1.7979558014
H        1.1727367574    0.3537093860   -1.5498287332
H       -0.2391506565    0.0650468986   -2.0496428074
O       -0.7074308936   -1.7427622370   -1.8876237290
H       -0.2287622546   -1.8058674640   -1.0472748636
H       -0.2171543043   -2.2796625956   -2.5135586012
O       -1.2330715351    2.1088805835   -0.0134179024
H       -0.6478911424    1.7951020412   -0.7197986238
H       -2.0620425526    1.6467180983   -0.1536474076
18   
Iteration 8 Energy -30.47666749
O        1.0200628421   -1.4690620723    0.3326039639
H        1.4374912740   -2.1427798128    0.8696024723
H        1.4726105302   -0.6283671992    0.4927386481
O       -1.1346737226   -0.6757763122    2.1094519803
H       -0.5735448221   -0.9884120973    1.3905161182
H       -1.2027898711    0.2749733630    1.9882592591
O        1.9476444952    1.1238985934    0.8944966318
H        1.2588361103    1.6829874360    0.5132425791
H        2.6724250968    1.7105358064    1.1326876801
O        0.3214441587    0.8129733897   -1.8720012536
H        1.1438620198    0.5223576354   -1.4729183802
H       -0.1589590253   -0.0160346360   -2.0786426654
O       -0.6276786766   -1.6702800517   -1.8745968951
H       -0.1433480294   -1.8456447697   -1.0481294765
H       -0.3288359641   -2.3164511582   -2.5166682831
O       -1.0801116081    2.0048074777    0.1122277902
H       -0.6126182284    1.6710220926   -0.6774095781
H       -1.9758126084    1.6797563662    0.0011056317
18   
Iteration 9 Energy -30.47776409
O        1.0387550026   -1.5814635136    0.4132855739
H        1.3144785813   -2.1796011519    1.1052941166
H        1.5571803920   -0.7649421276    0.4751169269
O       -1.0604979829   -0.5827292085    1.9617776757
H       -0.4728135896   -0.8145500370    1.2280360569
H       -1.2410451758    0.3538920611    1.8418513579
O        1.7904751473    1.1660714299    0.6748420687
H        0.9546615799    1.6208599764    0.4932974898
H        2.3936338320    1.8213618304    1.0388038303
O        0.3244811270    0.8759188023   -1.9963587022
H        1.0948223826    0.8282481213   -1.4279956385
H       -0.0210207634   -0.0500645559   -2.0411117502
O       -0.5022085545   -1.6499029280   -1.8948297879
H       -0.0581593387   -1.9155192962   -1.0654246440
H       -0.5152544004   -2.3924703391   -2.4975006474
O       -0.8131370592    1.7808132569    0.2984763378
H       -0.5779377010    1.5002615269   -0.6198549042
H       -1.7704095084    1.7143202034    0.3088608627
18   
Iteration 10 Energy -30.48113216
O        1.0446334038   -1.5258539922    0.3711111416
H        1.4154730149   -2.1541354245    0.9901633027
H        1.4773642609   -0.6701044376    0.5243993882
O       -1.1053279158   -0.6191200724    2.0409037384
H       -0.5204757938   -0.9210392663    1.3327098615
H       -1.2011474849    0.3264441046    1.9009224070
O        1.8811378219    1.1095100041    0.7652912677
H        1.0837575068    1.6179753761    0.5606811558
H        2.5467560307    1.7383860945    1.0521097025
O        0.3496577826    0.8715360970   -1.9347619857
H        1.1677176200    0.6757710205   -1.4719539877
H       -0.0969293687    0.0067920454   -2.0579882840
O       -0.5897968401   -1.6798727151   -1.8908586661
H       -0.1155095904   -1.8513053084   -1.0590269577
H       -0.4172571854   -2.4018456646   -2.4951270943
O       -0.9616492543    1.9025358624    0.1861060914
H       -0.6181799775    1.5766028326   -0.6751621477
H       -1.9042200598    1.7282274948    0.1570472896
18   
Iteration 11 Energy -30.48287279
O        1.0609810435   -1.5446575723    0.3743840220
H        1.4183787619   -2.1459688585    1.0287505683
H        1.4674919484   -0.6760720414    0.5331251566
O       -1.1062865762   -0.5828093749    2.0244003383
H       -0.5188681085   -0.9295581081    1.3387437011
H       -1.1733234436    0.3594364834    1.8488768949
O        1.8573839420    1.0975417938    0.7155983780
H        1.0087727186    1.5525538172    0.6099608539
H        2.4888575024    1.7528449767    1.0151404392
O        0.3518341906    0.8809276452   -1.9540271490
H        1.1755126886    0.7180050265   -1.4853497820
H       -0.0725668643    0.0077803172   -2.0632318077
O       -0.5770208348   -1.6759954286   -1.8887754258
H       -0.1004232775   -1.8451972130   -1.0613706138
H       -0.4415677052   -2.4250561237   -2.4689242798
O       -0.9230880984    1.8695223846    0.2066626735
H       -0.6069508846    1.5749061149   -0.6771440625
H       -1.8731130322    1.7423002119    0.1997463175
18   
Iteration 12 Energy -30.48326112
O        1.0956008495   -1.6131826712    0.4145342683
H        1.4251359884   -2.0971015552    1.1745247943
H        1.4333958854   -0.7021930377    0.5019038497
O       -1.0867917022   -0.4715386933    1.9542895511
H       -0.5132581174   -0.9600136740    1.3486785387
H       -1.0493953952    0.4437813844    1.6596981338
O        1.7139791429    1.0673701524    0.5767189056
H        0.7952477179    1.3355685959    0.7532183391
H        2.2778003435    1.7587100463    0.9209377939
O        0.3556716774    0.9329606058   -2.0097319580
H        1.1861841513    0.8742695559   -1.5235810235
H        0.0177678718    0.0291712636   -2.0972984127
O       -0.5471091665   -1.6755216697   -1.8573879838
H       -0.0402484462   -1.8275548802   -1.0492761516
H       -0.5104936663   -2.4810407683   -2.3736117135
O       -0.8008255426    1.7671158434    0.2646001945
H       -0.5596848230    1.5543370397   -0.6686613950
H       -1.7569727978    1.7953665132    0.3070104918
18   
Iteration 13 Energy -30.48469346
O        1.0824847965   -1.5789027601    0.3919825692
H        1.4489796784   -2.1060127095    1.1042745920
H        1.4286599016   -0.6757449750    0.5081831260
O       -1.1018845718   -0.5214336349    2.0004004325
H       -0.5388722332   -0.9935166201    1.3739164196
H       -1.0753191333    0.4008434251    1.7259880700
O        1.7996542079    1.0537898708    0.6522701935
H        0.9027995888    1.4236013559    0.7019913695
H        2.3955423065    1.7359453364    0.9618385276
O        0.3421582196    0.9089016891   -1.9782495548
H        1.1800661200    0.7787837573   -1.5213080230
H       -0.0443004528    0.0246066666   -2.0888586589
O       -0.5712847628   -1.6730743380   -1.8661422537
H       -0.0703707350   -1.8100965366   -1.0494914009
H       -0.4519783264   -2.4569485890   -2.4034630051
O       -0.8902599226    1.8431781600    0.2382120782
H       -0.5547946255    1.5938516077   -0.6534317912
H       -1.8452760849    1.7827323453    0.1984535323
18   
Iteration 14 Energy -30.48501374
O        1.0854903901   -1.5957449242    0.3992052326
H        1.4482445682   -2.1063205664    1.1248208984
H        1.4357559478   -0.6920784759    0.4936765915
O       -1.0970956672   -0.5078601613    1.9922729881
H       -0.5443178409   -1.0066780624    1.3779110440
H       -1.0613476023    0.4053939511    1.6876603274
O        1.7845186660    1.0541340149    0.6424212486
H        0.8857051482    1.4165725264    0.7063802600
H        2.3767028139    1.7350614814    0.9621843307
O        0.3350054002    0.9221018840   -1.9736172999
H        1.1769326371    0.7883096119   -1.5255908075
H       -0.0555592645    0.0378598732   -2.0845622204
O       -0.5575316822   -1.6685087191   -1.8580045383
H       -0.0572751992   -1.8086197365   -1.0401269253
H       -0.4522408025   -2.4574667208   -2.3909837468
O       -0.8755671041    1.8302990751    0.2401821849
H       -0.5591635611    1.5900590196   -0.6612483374
H       -1.8322528768    1.7939899800    0.2039849921
18   
Iteration 15 Energy -30.48536639
O        1.0948524620   -1.6357871356    0.4243058336
H        1.4628061132   -2.0985351607    1.1782562630
H        1.4347500056   -0.7244399002    0.4668620994
O       -1.0800179050   -0.4674809006    1.9662091355
H       -0.5573810437   -1.0462417293    1.3990041343
H       -1.0128671137    0.4091806277    1.5674973868
O        1.7443457554    1.0345331150    0.6164547674
H        0.8421233695    1.3788570955    0.7237488043
H        2.3322215960    1.7087886137    0.9582539131
O        0.3114798475    0.9504765327   -1.9833606078
H        1.1644811695    0.8293578015   -1.5530696609
H       -0.0669817939    0.0587160463   -2.0903036230
O       -0.5302419898   -1.6566663696   -1.8281662570
H       -0.0228938305   -1.7958121982   -1.0123659072
H       -0.4454651434   -2.4554278917   -2.3500983463
O       -0.8631570876    1.8110282434    0.2596847929
H       -0.5524693004    1.5889640751   -0.6512354370
H       -1.8195811398    1.8409931859    0.2048889317
18   
Iteration 16 Energy -30.48558775
O        1.1003867879   -1.6486044952    0.4352377212
H        1.4761121674   -2.1060344040    1.1884094489
H        1.4352737856   -0.7352509069    0.4720277102
O       -1.0733799483   -0.4634681007    1.9612477886
H       -0.5599147123   -1.0622082557    1.4073606058
H       -1.0154682064    0.3981758468    1.5270353324
O        1.7467991536    1.0241836508    0.6171510223
H        0.8484720004    1.3788668162    0.7182001633
H        2.3393014606    1.6902169313    0.9674138481
O        0.2940688796    0.9596125546   -1.9816811796
H        1.1541956843    0.8382152268   -1.5666163908
H       -0.0831321870    0.0658184562   -2.0843131088
O       -0.5197775894   -1.6494943289   -1.8161461407
H       -0.0140408590   -1.7902042934   -0.9989208495
H       -0.4319792670   -2.4464947382   -2.3399915405
O       -0.8702791198    1.8159244116    0.2528809824
H       -0.5649137893    1.5899024810   -0.6596348718
H       -1.8257202702    1.8713471986    0.1969056813
18   
Iteration 17 Energy -30.48604818
O        1.1300335292   -1.7003627625    0.4801930896
H        1.5265493024   -2.1419397270    1.2319981175
H        1.4426779844   -0.7783793485    0.5065572631
O       -1.0468602389   -0.4454030755    1.9327254520
H       -0.5574118749   -1.1040892196    1.4293224949
H       -1.0428310200    0.3526106535    1.3812729426
O        1.7537601987    0.9862405508    0.6044160341
H        0.8653906489    1.3644939988    0.6938978916
H        2.3553458238    1.6177065353    1.0009005272
O        0.2297060399    0.9900466718   -2.0019037524
H        1.1112657828    0.8949067735   -1.6283427014
H       -0.1240886236    0.0817601113   -2.0749286529
O       -0.4780805066   -1.6256187798   -1.7665518354
H        0.0221503789   -1.7782956569   -0.9470929773
H       -0.3885651833   -2.4154819159   -2.3000003064
O       -0.9052413771    1.8333005885    0.2438731718
H       -0.6120582020    1.5920962358   -0.6716499290
H       -1.8457386919    2.0069124172    0.1818793933
18   
Iteration 18 Energy -30.48622524
O        1.1417032284   -1.7049070617    0.4894224616
H        1.5377298067   -2.1562394505    1.2360467499
H        1.4496815566   -0.7810307456    0.5293793222
O       -1.0434617754   -0.4563868981    1.9321131686
H       -0.5484983701   -1.0980507914    1.4117723787
H       -1.0681048468    0.3493549545    1.3936753320
O        1.7582635054    0.9785782426    0.5972477857
H        0.8715112860    1.3612038161    0.6841781928
H        2.3617636771    1.5979593218    1.0093719966
O        0.2163311011    0.9905027454   -2.0140397352
H        1.1000542029    0.9154584254   -1.6408130046
H       -0.1215628978    0.0762907532   -2.0737404327
O       -0.4741344281   -1.6259173399   -1.7579056903
H        0.0269321270   -1.7822505269   -0.9408994851
H       -0.3829128034   -2.4116057060   -2.2970594176
O       -0.9131517694    1.8393019499    0.2350587497
H       -0.6287554995    1.5933727448   -0.6808107192
H       -1.8473841298    2.0448696172    0.1835685696
18   
Iteration 19 Energy -30.48645675
O        1.1739088423   -1.7338538656    0.5157204159
H        1.5610692538   -2.1813053499    1.2698228551
H        1.4697983848   -0.8047063756    0.5584029698
O       -1.0316081332   -0.4557596962    1.9167662394
H       -0.5376566210   -1.0898728079    1.3855741280
H       -1.0980173530    0.3434467272    1.3745341444
O        1.7552467141    0.9624400060    0.5643735829
H        0.8600761221    1.3233191316    0.6622024666
H        2.3426061088    1.5572441619    1.0318598815
O        0.1794644800    1.0039758829   -2.0437313992
H        1.0692139745    0.9718413655   -1.6780400789
H       -0.1255661667    0.0782458279   -2.0714863860
O       -0.4491692295   -1.6252699574   -1.7302961683
H        0.0576436577   -1.7886170273   -0.9199358474
H       -0.3719862285   -2.4108580841   -2.2719219660
O       -0.9259647899    1.8384836339    0.2306872782
H       -0.6604641990    1.5989011537   -0.6905415205
H       -1.8325908465    2.1428493244    0.1925756271
18   
Iteration 20 Energy -30.48660284
O        1.1978737753   -1.7492828340    0.5298986997
H        1.5709039854   -2.1888890594    1.2957179853
H        1.4939017112   -0.8192871688    0.5646686204
O       -1.0240422720   -0.4584643280    1.9090517659
H       -0.5299377954   -1.0800964323    1.3629678532
H       -1.1145884179    0.3437490931    1.3767386988
O        1.7403681875    0.9495666074    0.5380353340
H        0.8410576757    1.2980683584    0.6443628604
H        2.3161581928    1.5177955391    1.0507915062
O        0.1546301331    1.0131240763   -2.0636589861
H        1.0475533257    1.0072177768   -1.7041699319
H       -0.1316858842    0.0817625068   -2.0721653204
O       -0.4301099895   -1.6293470802   -1.7077235908
H        0.0889935004   -1.7956118634   -0.9064161015
H       -0.3640217408   -2.4147044061   -2.2513876111
O       -0.9313809201    1.8352884089    0.2288419667
H       -0.6812191927    1.6029211743   -0.6969736466
H       -1.8084503037    2.2166936819    0.1979861205
18   
Iteration 21 Energy -30.48674201
O        1.2258468414   -1.7654490097    0.5392719199
H        1.5779492437   -2.1867430239    1.3248745119
H        1.5214538293   -0.8345578864    0.5556302511
O       -1.0177619618   -0.4613739706    1.9060639489
H       -0.5266934540   -1.0730066753    1.3462933100
H       -1.1274441524    0.3430599918    1.3818158648
O        1.7261070644    0.9412142767    0.5124855422
H        0.8179531579    1.2686104967    0.6146843836
H        2.2752231684    1.4782091355    1.0848927864
O        0.1229209723    1.0202275543   -2.0780856610
H        1.0211995663    1.0284356051   -1.7324981495
H       -0.1520328647    0.0855804009   -2.0697168149
O       -0.4059827952   -1.6330705155   -1.6883502453
H        0.1275323283   -1.7990563156   -0.8961083091
H       -0.3517509234   -2.4215949997   -2.2289933770
O       -0.9334690953    1.8330191000    0.2276081550
H       -0.6954907394    1.6090724473   -0.7026304643
H       -1.7695562150    2.2979274392    0.1993285702
18   
Iteration 22 Energy -30.48686475
O        1.2487757721   -1.7683485490    0.5401122764
H        1.5828126797   -2.1682395632    1.3442435112
H        1.5414405967   -0.8361702072    0.5378034689
O       -1.0110498548   -0.4671651514    1.9081863526
H       -0.5224520218   -1.0703678140    1.3374767926
H       -1.1350092992    0.3396456867    1.3909101058
O        1.7093996410    0.9294190839    0.4990707094
H        0.7993897428    1.2561924880    0.5898091725
H        2.2383809956    1.4275301970    1.1234517443
O        0.0956384533    1.0206175671   -2.0868698386
H        1.0009828111    1.0316544880   -1.7610016181
H       -0.1762516763    0.0845164072   -2.0712502206
O       -0.3893646646   -1.6393156698   -1.6715921697
H        0.1612890178   -1.7986489409   -0.8886199772
H       -0.3341484869   -2.4275232913   -2.2126113073
O       -0.9365659148    1.8334155229    0.2270073140
H       -0.7117469995    1.6084615763   -0.7068931954
H       -1.7255168215    2.3748302209    0.1973331020
18   
Iteration 23 Energy -30.48700651
O        1.2747877330   -1.7657932010    0.5326234316
H        1.5824098289   -2.1393966550    1.3593285642
H        1.5584427437   -0.8304323881    0.5142790817
O       -1.0030925304   -0.4743576712    1.9161640066
H       -0.5205884883   -1.0690096173    1.3318728560
H       -1.1427364384    0.3350924063    1.4071760212
O        1.7035937563    0.9298314996    0.4946733535
H        0.7883088569    1.2520756134    0.5527836341
H        2.1901208921    1.3814155892    1.1855544184
O        0.0597401169    1.0111973720   -2.0913846112
H        0.9744172681    1.0188468688   -1.7934720286
H       -0.2108678925    0.0737941354   -2.0696210767
O       -0.3733346965   -1.6480540324   -1.6653114652
H        0.1898286845   -1.7983410453   -0.8880509338
H       -0.3129972658   -2.4372229925   -2.2041991196
O       -0.9353282031    1.8328359575    0.2275437129
H       -0.7246228465    1.6023644390   -0.7096799104
H       -1.6620775482    2.4556577726    0.1962862880
18   
Iteration 24 Energy -30.48723230
O        1.3132789770   -1.7466459246    0.5133897546
H        1.5755806098   -2.0808234832    1.3717998095
H        1.5749622599   -0.8036408954    0.4799149972
O       -0.9833595510   -0.4857333890    1.9297851486
H       -0.5144513780   -1.0698042759    1.3246038455
H       -1.1487746162    0.3254909776    1.4316949448
O        1.6963585735    0.9364020037    0.5051243149
H        0.7811915757    1.2691575009    0.5097006652
H        2.1110324796    1.2961924484    1.2904730321
O        0.0018464374    0.9856589329   -2.1004317320
H        0.9313728616    0.9957205892   -1.8544039659
H       -0.2603199125    0.0443873217   -2.0720576137
O       -0.3586856509   -1.6711325681   -1.6584775694
H        0.2223822955   -1.8015268781   -0.8890088827
H       -0.2756174732   -2.4556548813   -2.2006648784
O       -0.9355599201    1.8307187627    0.2281987193
H       -0.7596242762    1.5848228175   -0.7148825754
H       -1.5356093209    2.5769149919    0.2018082085
18   
Iteration 25 Energy -30.48750483
O        1.3537692193   -1.6947276511    0.4646456678
H        1.5367015117   -1.9877649984    1.3581984174
H        1.5849505925   -0.7414883473    0.4288155684
O       -0.9541057007   -0.5017513268    1.9580455567
H       -0.5134846985   -1.0687339426    1.3169358161
H       -1.1386174750    0.3215561198    1.4886681027
O        1.6964589052    0.9794743667    0.5516230121
H        0.7851859312    1.3232045230    0.4726715508
H        1.9864134601    1.2160403660    1.4340492333
O       -0.0673698753    0.9319861240   -2.1057925689
H        0.8771313620    0.9431176909   -1.9278630238
H       -0.3208790032   -0.0132609534   -2.0754010996
O       -0.3574068200   -1.7175663209   -1.6749584277
H        0.2364894636   -1.8177416508   -0.9089262780
H       -0.2344438815   -2.4935743518   -2.2214091969
O       -0.9120936711    1.8233425871    0.2369939378
H       -0.7854724221    1.5466909608   -0.7080096808
H       -1.3372229274    2.6817008557    0.2082796354
18   
Iteration 26 Energy -30.48773795
O        1.3463238318   -1.6631218082    0.4348123444
H        1.5127818439   -1.9658129069    1.3289593248
H        1.5655352610   -0.7058087016    0.4230508426
O       -0.9407765202   -0.4983452601    1.9653137247
H       -0.5195235416   -1.0756577627    1.3206081778
H       -1.1189956638    0.3253683412    1.4940015721
O        1.6992819169    1.0051096852    0.5859699613
H        0.7912776138    1.3575310606    0.4942388060
H        1.9744170668    1.2301805342    1.4762609267
O       -0.0760719382    0.9097023140   -2.1017790121
H        0.8712935019    0.9247670324   -1.9396901544
H       -0.3253700193   -0.0364714692   -2.0774986789
O       -0.3758129677   -1.7401860798   -1.6908196303
H        0.2139520773   -1.8292104413   -0.9204334756
H       -0.2291290008   -2.5086907962   -2.2421639781
O       -0.8840711788    1.8175432436    0.2435330690
H       -0.7679914230    1.5049694188   -0.6910983764
H       -1.3011168891    2.6786376471    0.1933007791
18   
Iteration 27 Energy -30.48791450
O        1.3760593419   -1.6228310986    0.3984830117
H        1.4804806728   -1.9402740851    1.2982594124
H        1.5511037446   -0.6537458862    0.4344499855
O       -0.8749368294   -0.4797295227    1.9521727364
H       -0.5326571680   -1.0988635838    1.3003913555
H       -1.1039458220    0.3167359969    1.4561614758
O        1.7152670764    1.0621147104    0.6713890195
H        0.8066997340    1.4103395745    0.5426528465
H        1.8971560805    1.1608338790    1.6075859671
O       -0.1722090751    0.8650778406   -2.1267730863
H        0.7817620370    0.9488489577   -2.0436858222
H       -0.3554239214   -0.0943022695   -2.0828421897
O       -0.3801617997   -1.8020939992   -1.6781690004
H        0.2194263003   -1.8626172419   -0.9131346707
H       -0.1807136379   -2.5443539165   -2.2490335326
O       -0.8741869251    1.8242764505    0.2327964375
H       -0.8142185980    1.4888530549   -0.6967368937
H       -1.1034972401    2.7522351900    0.1925991705
18   
Iteration 28 Energy -30.48815769
O        1.3422023034   -1.6242758143    0.3975708009
H        1.4834269923   -1.9842290354    1.2759045843
H        1.5394396118   -0.6624757454    0.4615655036
O       -0.8845481424   -0.4693564045    1.9451558393
H       -0.5539079753   -1.0920887850    1.2903725495
H       -1.0921486569    0.3358443862    1.4552573493
O        1.7183582742    1.0512949086    0.6707340878
H        0.8040555958    1.3916979696    0.5794477186
H        1.9766775233    1.2396636485    1.5744147919
O       -0.1324831752    0.8724909306   -2.1240123366
H        0.8179893141    0.9544474911   -2.0038929330
H       -0.3258692166   -0.0834330854   -2.0796731273
O       -0.4010711342   -1.7917861158   -1.6868125653
H        0.1981620375   -1.8588905886   -0.9233136487
H       -0.2078812762   -2.5371916655   -2.2562506866
O       -0.8581194318    1.8208597523    0.2357432618
H       -0.7559851286    1.4696677640   -0.6812150818
H       -1.2322935441    2.6982644401    0.1655701152
18   
Iteration 29 Energy -30.48834811
O        1.3603850846   -1.6075890283    0.3804046772
H        1.4725755463   -1.9647078818    1.2634215128
H        1.5577060151   -0.6459759278    0.4437666494
O       -0.8746443683   -0.4737749850    1.9540607805
H       -0.5756833549   -1.0784577271    1.2679192356
H       -1.0855251801    0.3487235383    1.4974216106
O        1.7151091844    1.0581433363    0.6978682324
H        0.8017775209    1.3945971656    0.5826610889
H        1.9368015678    1.2168379249    1.6169359380
O       -0.1503435306    0.8536674110   -2.1301414885
H        0.8026099909    0.9288882057   -2.0301795469
H       -0.3522991459   -0.1009038506   -2.0773045114