48   
Iteration 0 Energy -1141.49011531
O        0.6991000000   -2.2606000000   -0.2425000000
O       -3.4065000000    2.8382000000   -0.3438000000
O       -0.9651000000   -3.3646000000    0.9187000000
N       -1.4047000000    1.6201000000   -0.9940000000
N        1.6652000000    2.1369000000    0.7909000000
C       -1.2090000000   -0.7716000000   -0.2858000000
C       -1.0161000000    0.2513000000   -1.4669000000
C        1.0344000000    0.1355000000   -0.3771000000
C        0.2278000000   -1.0095000000    0.2555000000
C       -2.1626000000   -0.1404000000    0.7738000000
C        0.4830000000    0.2358000000   -1.7858000000
C       -0.7863000000    1.8889000000    0.3488000000
C       -1.4802000000    1.0645000000    1.4524000000
C        0.6643000000    1.4697000000    0.2918000000
C       -2.8978000000    1.6141000000   -0.8711000000
C       -3.3356000000    0.4566000000    0.0163000000
C        2.5062000000    0.1813000000   -0.1885000000
C        2.8096000000    1.3650000000    0.5031000000
C       -4.5921000000    0.0012000000    0.0930000000
C        3.4978000000   -0.6985000000   -0.5794000000
C        4.1182000000    1.6834000000    0.8252000000
C        0.0048000000   -3.3604000000    0.1728000000
C        4.8194000000   -0.3830000000   -0.2570000000
C       -5.0091000000   -1.1567000000    0.9350000000
C        5.1271000000    0.7973000000    0.4405000000
C        0.6083000000   -4.5947000000   -0.4259000000
H       -1.6768000000   -1.6689000000   -0.7069000000
H       -1.5874000000   -0.0277000000   -2.3605000000
H        0.2968000000   -1.0239000000    1.3490000000
H       -2.4414000000   -0.8697000000    1.5377000000
H        0.7509000000   -0.6382000000   -2.3912000000
H        0.8051000000    1.1319000000   -2.3299000000
H       -0.8290000000    2.9585000000    0.5826000000
H       -2.2257000000    1.6799000000    1.9739000000
H       -0.7701000000    0.7314000000    2.2181000000
H       -3.3231000000    1.5003000000   -1.8760000000
H       -5.3713000000    0.4934000000   -0.4831000000
H        3.2665000000   -1.6081000000   -1.1220000000
H       -4.3774000000    2.7939000000   -0.3710000000
H        4.3603000000    2.5962000000    1.3588000000
H        5.6206000000   -1.0564000000   -0.5497000000
H       -5.3496000000   -0.8119000000    1.9157000000
H       -4.2267000000   -1.9086000000    1.0640000000
H       -5.8485000000   -1.6676000000    0.4506000000
H        6.1628000000    1.0233000000    0.6801000000
H        1.6473000000   -4.6935000000   -0.1017000000
H        0.5479000000   -4.5446000000   -1.5159000000
H        0.0518000000   -5.4726000000   -0.0855000000
48   
Iteration 1 Energy -1141.50783197
O        0.7300012776   -2.2652346183   -0.2393250427
O       -3.3209479023    2.8420414358   -0.3240087724
O       -0.7987496896   -3.3610533887    0.9228115255
N       -1.4190673953    1.6033846141   -0.9733748406
N        1.6444106139    2.1066064404    0.7549258428
C       -1.2204373087   -0.7772947256   -0.2635274756
C       -1.0442096471    0.2449900046   -1.4409442915
C        1.0273278664    0.1213710353   -0.3804230930
C        0.2253147954   -1.0230308336    0.2593348731
C       -2.1617401861   -0.1466137977    0.7950632159
C        0.4484764477    0.2203688142   -1.7821338948
C       -0.7845916220    1.8756989541    0.3494229237
C       -1.4708474002    1.0573161417    1.4635554737
C        0.6603648541    1.4531717216    0.2809624641
C       -2.8842502703    1.6015871648   -0.8403154328
C       -3.3412598834    0.4464012687    0.0489106624
C        2.5118123199    0.1614051723   -0.1995853188
C        2.8022048054    1.3452249051    0.4783274106
C       -4.5984327131    0.0242480325    0.1157257550
C        3.5141343322   -0.7060154825   -0.5798529123
C        4.1031786408    1.6798148906    0.7986025575
C        0.1227138224   -3.3925397736    0.1649147782
C        4.8299487528   -0.3790518704   -0.2613913230
C       -5.2007977719   -1.1021428332    0.9062627511
C        5.1143520118    0.8011729933    0.4213594586
C        0.7396192657   -4.6207662506   -0.4368819031
H       -1.6872511780   -1.6683288547   -0.6695315691
H       -1.6303175443   -0.0254856768   -2.3164810408
H        0.3069264579   -1.0363425055    1.3416259969
H       -2.4344701905   -0.8704918164    1.5541050454
H        0.7030048676   -0.6504041064   -2.3859088451
H        0.7617450497    1.1094489389   -2.3253407055
H       -0.8237173464    2.9375223941    0.5697114647
H       -2.2061736749    1.6690680599    1.9847556696
H       -0.7560061744    0.7326583284    2.2183989965
H       -3.3066889548    1.4885975420   -1.8383829121
H       -5.3178807698    0.5674173874   -0.4847489204
H        3.2927841627   -1.6168368463   -1.1122265613
H       -4.2752691361    2.8386325705   -0.3344524673
H        4.3312096911    2.5948697862    1.3216602839
H        5.6347373877   -1.0406928485   -0.5452963804
H       -5.5761248770   -0.7483081652    1.8665457653
H       -4.5110046884   -1.9232309237    1.0750546567
H       -6.0481700411   -1.5188824740    0.3611660704
H        6.1403075913    1.0390603071    0.6589429021
H        1.7855033259   -4.6876059087   -0.1482880110
H        0.6538026414   -4.5841786926   -1.5200755422
H        0.2176253844   -5.5006462863   -0.0725490637
48   
Iteration 2 Energy -1141.50665381
O        0.6935270901   -2.2747770514   -0.2335223039
O       -3.1912804961    2.8970925864   -0.3416251050
O       -0.5385681706   -3.6625700699    1.0583916917
N       -1.4654955826    1.5921794731   -0.9779554898
N        1.5939048777    2.0463295478    0.7016088665
C       -1.3034679317   -0.7725205618   -0.2612938026
C       -1.1208069329    0.2443465161   -1.4315974517
C        0.9672270993    0.0760467963   -0.3884455703
C        0.1378996835   -1.0503990049    0.2503309528
C       -2.2351453327   -0.1234855807    0.7807317022
C        0.3630104903    0.1726436740   -1.7913283927
C       -0.8126989969    1.8622157203    0.3220059132
C       -1.5228766857    1.0693350061    1.4469115523
C        0.6209135104    1.4120217015    0.2557197059
C       -2.8950704149    1.6346994826   -0.8555738672
C       -3.3957061578    0.4827668444    0.0253928325
C        2.4638151366    0.0851594139   -0.1890735287
C        2.7588931248    1.2728031044    0.4664314415
C       -4.6556379987    0.1182501461    0.0607607462
C        3.4698042824   -0.7893761891   -0.5305821286
C        4.0514781376    1.6114513452    0.8011209281
C        0.2511366171   -3.4306048609    0.2259054090
C        4.7750986433   -0.4520164605   -0.1933987224
C       -5.1307870417   -1.0107740262    0.9449637537
C        5.0644759052    0.7272078375    0.4629486554
C        0.9740870224   -4.5219116313   -0.5075588818
H       -1.7683715060   -1.6636306583   -0.6346262155
H       -1.7376525404    0.0036158908   -2.2809050347
H        0.2243880703   -1.0601768723    1.3192207553
H       -2.5373247440   -0.8440635827    1.5213747339
H        0.5878514325   -0.7045300885   -2.3824131715
H        0.6885986940    1.0452380648   -2.3329923187
H       -0.8349414151    2.9171101943    0.5097859064
H       -2.2456668612    1.6915371116    1.9492699816
H       -0.8174927946    0.7515237018    2.2009479736
H       -3.3019973015    1.5343027366   -1.8526836158
H       -5.3933560731    0.6276077230   -0.5448874066
H        3.2565974954   -1.7058431388   -1.0419596670
H       -4.1221050824    2.9906474751   -0.3095390119
H        4.2619626842    2.5332396903    1.3038021417
H        5.5745648915   -1.1181000104   -0.4482422897
H       -5.4744504071   -0.6470488733    1.9074369949
H       -4.3609702542   -1.7475465887    1.1207328636
H       -5.9676419909   -1.5179381321    0.4823707826
H        6.0804857654    0.9627588578    0.7097106548
H        2.0383335182   -4.4229985565   -0.3532233767
H        0.7742474614   -4.4477223585   -1.5666525151
H        0.6403117495   -5.4771958233   -0.1406978900
48   
Iteration 3 Energy -1141.51524000
O        0.7152230349   -2.2631164186   -0.2615191948
O       -3.2194209739    2.8833738992   -0.2963289755
O       -0.5362866707   -3.4923772876    1.0986570600
N       -1.4564509790    1.5955656153   -0.9635416566
N        1.6213156201    2.0722326461    0.7162280384
C       -1.2724642486   -0.7745589855   -0.2693100811
C       -1.0993040667    0.2524889390   -1.4337591339
C        0.9913803380    0.0929695064   -0.3963215736
C        0.1676620533   -1.0436173774    0.2346166228
C       -2.2080100261   -0.1390997567    0.7847607634
C        0.3828453411    0.1935784301   -1.7995147510
C       -0.7989155426    1.8608004327    0.3395124884
C       -1.5022802000    1.0536459020    1.4607535728
C        0.6401358051    1.4226041970    0.2635490620
C       -2.8985272227    1.6318791319   -0.8353153371
C       -3.3774296868    0.4628507465    0.0349375534
C        2.4845409599    0.1114739886   -0.2007041568
C        2.7824530725    1.2992687594    0.4653802659
C       -4.6415847369    0.0823137817    0.0676548706
C        3.4921653767   -0.7595532592   -0.5548292543
C        4.0771664849    1.6387513179    0.7957653058
C        0.2636626582   -3.4138214556    0.2238899259
C        4.8022050574   -0.4258427820   -0.2241799225
C       -5.2216997160   -1.0377213871    0.8968220572
C        5.0897032329    0.7550350508    0.4425593877
C        0.9150491086   -4.5862825012   -0.4625890205
H       -1.7299595663   -1.6767667572   -0.6441457169
H       -1.7226884758    0.0145396280   -2.2839626895
H        0.2558225104   -1.0619753632    1.3080748019
H       -2.5047527291   -0.8718665276    1.5201714479
H        0.6118528503   -0.6810475614   -2.3972534877
H        0.7033169257    1.0747826967   -2.3374908328
H       -0.8288126280    2.9179116561    0.5361864311
H       -2.2310649961    1.6688724555    1.9704357552
H       -0.7908034288    0.7341505503    2.2122807647
H       -3.3117851507    1.5395017806   -1.8345339491
H       -5.3520436584    0.6164142429   -0.5491280126
H        3.2764677666   -1.6745269300   -1.0729678582
H       -4.1602598718    2.9672214575   -0.2495425460
H        4.2893733106    2.5592505900    1.3058466915
H        5.6029507895   -1.0911738340   -0.4901406760
H       -5.5982715852   -0.6733434547    1.8484964886
H       -4.4987269042   -1.8165211697    1.0988414680
H       -6.0583851242   -1.4938322278    0.3788067466
H        6.1092129890    0.9919494290    0.6863176711
H        1.9889116236   -4.5360545605   -0.3347478862
H        0.7003443750   -4.5586985370   -1.5236535028
H        0.5392676735   -5.5047281047   -0.0379663379
48   
Iteration 4 Energy -1141.51672083
O        0.6573198052   -2.2591350016   -0.3173063837
O       -3.1988704057    2.8960844141   -0.1691042430
O       -0.4754455985   -3.4353973099    1.1946772505
N       -1.4501533547    1.6178406703   -0.9364800823
N        1.6349255197    2.0708728907    0.7097584155
C       -1.2793674395   -0.7608046924   -0.2848202619
C       -1.1073723739    0.2797007053   -1.4380310172
C        0.9879170648    0.1020173665   -0.4115796033
C        0.1572054087   -1.0359621868    0.2119302012
C       -2.2126639518   -0.1354412640    0.7796262084
C        0.3711384013    0.2126474884   -1.8146668508
C       -0.7887362854    1.8636218612    0.3678945278
C       -1.4981058314    1.0408293202    1.4773563515
C        0.6458492895    1.4226379071    0.2696030554
C       -2.8950602907    1.6805024936   -0.7903527747
C       -3.3751328260    0.4727339151    0.0226860089
C        2.4802475749    0.1038813517   -0.2284578506
C        2.7851634778    1.2897808722    0.4374274903
C       -4.6323341062    0.0668232043    0.0053518140
C        3.4808451489   -0.7717072341   -0.5921895642
C        4.0847256107    1.6193778785    0.7563373876
C        0.2949107125   -3.3822016929    0.2911947650
C        4.7985581121   -0.4526124429   -0.2753363315
C       -5.2696462827   -1.0720472064    0.7608698066
C        5.0882077791    0.7285425209    0.3916130933
C        0.9602532683   -4.5746144877   -0.3368287434
H       -1.7220440785   -1.6792944283   -0.6474790631
H       -1.7509415507    0.0639910450   -2.2816773297
H        0.2392686929   -1.0809326082    1.2867236347
H       -2.5249499384   -0.8830971173    1.4953958427
H        0.5890555883   -0.6693854345   -2.4066456456
H        0.6979706039    1.0906815017   -2.3571397583
H       -0.8137836368    2.9189455789    0.5828744047
H       -2.2251163381    1.6569146987    1.9912064698
H       -0.7907175981    0.7029012827    2.2262808380
H       -3.3312623683    1.6559054758   -1.7849007699
H       -5.3159273544    0.6192584771   -0.6247848702
H        3.2542408523   -1.6852317553   -1.1100920863
H       -4.1189718099    2.9103909372    0.0558979349
H        4.3062221201    2.5377767984    1.2681517642
H        5.5942822168   -1.1225366404   -0.5497560694
H       -5.7301584745   -0.7223661397    1.6817106160
H       -4.5554651709   -1.8439178567    1.0193010516
H       -6.0531342425   -1.5311220643    0.1663505589
H        6.1112595690    0.9613001579    0.6288482945
H        2.0366113336   -4.4695763349   -0.2656224266
H        0.7002367454   -4.6274170666   -1.3878632048
H        0.6420454443   -5.4742592837    0.1691455250
48   
Iteration 5 Energy -1141.51637171
O        0.6190744191   -2.2586473622   -0.3547987140
O       -3.2059631159    2.9156142266   -0.1826834892
O       -0.4322231016   -3.3689290955    1.2189425094
N       -1.4503494464    1.6287716283   -0.9287727214
N        1.6334184466    2.0547018183    0.7246972253
C       -1.2978950906   -0.7507268172   -0.2951872343
C       -1.1189957090    0.2939370763   -1.4434504256
C        0.9762461221    0.1041499699   -0.4154900353
C        0.1395322973   -1.0352344494    0.1966040693
C       -2.2317439680   -0.1260373674    0.7733912131
C        0.3581725039    0.2218422969   -1.8199475614
C       -0.7913864234    1.8614318879    0.3809155800
C       -1.5047017666    1.0316869648    1.4847195628
C        0.6406172879    1.4169616865    0.2768094388
C       -2.8973251656    1.7005180806   -0.7975674669
C       -3.3856169760    0.4953842533    0.0122147699
C        2.4672987003    0.1032352942   -0.2343984578
C        2.7861422132    1.2800223221    0.4419131411
C       -4.6390132144    0.0817812648   -0.0365791201
C        3.4621809458   -0.7731466860   -0.6090729592
C        4.0872542810    1.6037548914    0.7626790395
C        0.2986254142   -3.3772378723    0.2834469989
C        4.7769487689   -0.4487611407   -0.2843462454
C       -5.2181273844   -1.0710602643    0.7409932345
C        5.0936645640    0.7194173479    0.3922893595
C        0.9694499530   -4.5885315523   -0.3018431483
H       -1.7328771943   -1.6755948229   -0.6530465441
H       -1.7702014921    0.0943845643   -2.2855839784
H        0.2195248281   -1.0991364736    1.2699113758
H       -2.5586137904   -0.8790432392    1.4775778006
H        0.5714259561   -0.6642856119   -2.4069650098
H        0.6913648222    1.0974295233   -2.3624266334
H       -0.8117738608    2.9140802885    0.6071463668
H       -2.2226263825    1.6508341328    2.0069228412
H       -0.7991913089    0.6751268884    2.2267451207
H       -3.3270611526    1.6809040728   -1.7952659421
H       -5.3293559873    0.6101994549   -0.6808404139
H        3.2358849269   -1.6822102285   -1.1358111940
H       -4.0842484006    2.8682919681    0.1683306650
H        4.3082966891    2.5172355788    1.2834069272
H        5.5674618995   -1.1207542474   -0.5674580033
H       -5.7435107601   -0.7174287676    1.6251355066
H       -4.4599572733   -1.7731002757    1.0668109217
H       -5.9374360163   -1.6126122593    0.1354511277
H        6.1194539450    0.9427891173    0.6283608506
H        2.0459003247   -4.4630340753   -0.2678108581
H        0.6847434822   -4.6938700774   -1.3427099418
H        0.6806116775   -5.4682046482    0.2537378345
48   
Iteration 6 Energy -1141.51719730
O        0.6260045767   -2.2607319068   -0.3410941307
O       -3.2040323738    2.9154077421   -0.1861508153
O       -0.4121473815   -3.4263715374    1.2338731462
N       -1.4507533593    1.6243332626   -0.9271201226
N        1.6361282957    2.0566719156    0.7203352650
C       -1.2980951666   -0.7526361882   -0.2842189995
C       -1.1207063254    0.2871648266   -1.4365964133
C        0.9765270369    0.1008806334   -0.4115873854
C        0.1420001832   -1.0357170671    0.2062426713
C       -2.2306905015   -0.1234142068    0.7828872674
C        0.3559076414    0.2132303757   -1.8150929946
C       -0.7900042599    1.8616473972    0.3801158234
C       -1.5022934239    1.0366746467    1.4879994806
C        0.6423074354    1.4167642528    0.2760042561
C       -2.8968714557    1.6958877934   -0.7948573663
C       -3.3863804227    0.4948657222    0.0204429096
C        2.4680557440    0.1008133246   -0.2332389880
C        2.7878625356    1.2803676698    0.4383706831
C       -4.6422291523    0.0837520853   -0.0274297032
C        3.4623180105   -0.7773739794   -0.6066612356
C        4.0894885282    1.6048294576    0.7554792944
C        0.3139288244   -3.3864760610    0.2933392072
C        4.7800422172   -0.4589243000   -0.2889857434
C       -5.2645952566   -1.0576802422    0.7345677096
C        5.0896737813    0.7138922003    0.3830960757
C        1.0030241773   -4.5754930652   -0.3168593469
H       -1.7339942712   -1.6776582041   -0.6385619543
H       -1.7723425516    0.0846024862   -2.2771426610
H        0.2250292489   -1.0951026913    1.2788300420
H       -2.5557265153   -0.8726193616    1.4910229643
H        0.5682407964   -0.6749121938   -2.3992823671
H        0.6879611877    1.0865760017   -2.3612140582
H       -0.8099719908    2.9148992002    0.6020068839
H       -2.2189789848    1.6580239801    2.0091976556
H       -0.7959370945    0.6829461869    2.2301968607
H       -3.3259733617    1.6718252056   -1.7925840162
H       -5.3191538301    0.6215232885   -0.6777605303
H        3.2322671363   -1.6874757757   -1.1295943668
H       -4.0822703227    2.8702718942    0.1653621698
H        4.3145747264    2.5195206274    1.2723736552
H        5.5701328560   -1.1320491945   -0.5710386698
H       -5.7990542020   -0.6947727656    1.6093968991
H       -4.5314049587   -1.7792709745    1.0719995277
H       -5.9850694795   -1.5797139933    0.1132774101
H        6.1155555090    0.9379634610    0.6164224489
H        2.0771172048   -4.4325580203   -0.2839187287
H        0.7164794445   -4.6678107815   -1.3584165128
H        0.7311491027   -5.4696739840    0.2236642400
48   
Iteration 7 Energy -1141.51734128
O        0.6557596049   -2.2563606328   -0.3148217904
O       -3.2119050076    2.9061257027   -0.2158442936
O       -0.4483579796   -3.4272255047    1.2083332486
N       -1.4488121188    1.6155471433   -0.9348450833
N        1.6333292487    2.0703101473    0.7167693802
C       -1.2865626579   -0.7574186350   -0.2742254138
C       -1.1107906768    0.2756772246   -1.4325773937
C        0.9858617875    0.1030218033   -0.4050548131
C        0.1556109376   -1.0319934437    0.2195273300
C       -2.2216927674   -0.1239556049    0.7878671162
C        0.3661914184    0.2056092855   -1.8092049317
C       -0.7898655698    1.8643514672    0.3692471529
C       -1.4997932961    1.0457354174    1.4824124433
C        0.6450365833    1.4240118288    0.2729483913
C       -2.8944200784    1.6779161272   -0.8038507325
C       -3.3807874195    0.4840516755    0.0240225886
C        2.4782603434    0.1056512504   -0.2280085945
C        2.7835351338    1.2901593870    0.4406427709
C       -4.6372942352    0.0750429563   -0.0128599250
C        3.4786753150   -0.7682979410   -0.5959290291
C        4.0832382652    1.6188866976    0.7586923154
C        0.3065993901   -3.3852409959    0.2918708563
C        4.7967257313   -0.4498071999   -0.2795479385
C       -5.2554105477   -1.0613149784    0.7594844320
C        5.0864033590    0.7293073827    0.3900344078
C        0.9509132006   -4.5808830383   -0.3542803434
H       -1.7227617365   -1.6810863528   -0.6295416936
H       -1.7554389568    0.0632532478   -2.2752058934
H        0.2415848828   -1.0827774141    1.2920759087
H       -2.5394430939   -0.8671663817    1.5052556888
H        0.5839508428   -0.6825559535   -2.3910471333
H        0.6938282761    1.0785229354   -2.3577073367
H       -0.8162119219    2.9191586341    0.5812870638
H       -2.2174137902    1.6673275027    2.0021649190
H       -0.7913977626    0.7009469926    2.2262631043
H       -3.3153994556    1.6352311581   -1.8038697128
H       -5.3187940953    0.6112608886   -0.6594966759
H        3.2522617164   -1.6798344605   -1.1172725572
H       -4.0888898941    2.8611871590    0.1378717299
H        4.3048726072    2.5359775741    1.2721639284
H        5.5920059829   -1.1185721014   -0.5568523910
H       -5.8068659213   -0.6911985724    1.6203452949
H       -4.5189480165   -1.7692507917    1.1169819762
H       -5.9617961225   -1.6010691456    0.1372007038
H        6.1093751637    0.9618201065    0.6262928235
H        2.0289341684   -4.4888258473   -0.2947536601
H        0.6813132876   -4.6240748291   -1.4034636405
H        0.6278839094   -5.4802831687    0.1476037429
48   
Iteration 8 Energy -1141.51752377
O        0.6731330872   -2.2566237543   -0.3011811319
O       -3.2179708053    2.8956332371   -0.2367384120
O       -0.4906474479   -3.4354190929    1.1750474339
N       -1.4467781939    1.6060111391   -0.9398888387
N        1.6367469718    2.0735585299    0.7110076984
C       -1.2777327690   -0.7636921950   -0.2684107153
C       -1.1042791340    0.2648167045   -1.4311939749
C        0.9925518332    0.1021306529   -0.4036862816
C        0.1656256225   -1.0323263604    0.2261729425
C       -2.2125831870   -0.1276667385    0.7922653917
C        0.3725132316    0.1982802069   -1.8079974492
C       -0.7867857773    1.8624857852    0.3613103846
C       -1.4929059883    1.0474356922    1.4790170156
C        0.6494903131    1.4248999001    0.2681659556
C       -2.8926283547    1.6617675312   -0.8087478189
C       -3.3755127257    0.4742829815    0.0305263815
C        2.4848689101    0.1119138605   -0.2255646880
C        2.7916135642    1.2975548930    0.4409241469
C       -4.6337590561    0.0702205627    0.0057697031
C        3.4864702210   -0.7606379407   -0.5916586538
C        4.0905738945    1.6311222248    0.7590041116
C        0.2776650677   -3.3874248862    0.2707703991
C        4.8006437283   -0.4294526843   -0.2715177113
C       -5.2747039728   -1.0553861174    0.7744230617
C        5.1009786748    0.7482784286    0.3955051467
C        0.9246480001   -4.5816362679   -0.3750924444
H       -1.7144929692   -1.6871336137   -0.6228881059
H       -1.7459701956    0.0462590306   -2.2743066091
H        0.2541952247   -1.0769318536    1.2989039550
H       -2.5230983493   -0.8673600891    1.5162579556
H        0.5942025996   -0.6896884602   -2.3884863963
H        0.6962830166    1.0715906896   -2.3579352214
H       -0.8167942143    2.9183823691    0.5673773839
H       -2.2094558292    1.6692268204    2.0003120198
H       -0.7817010348    0.7071106200    2.2221369946
H       -3.3094726415    1.6049172471   -1.8095427575
H       -5.3111999369    0.6129400579   -0.6394555306
H        3.2650915662   -1.6742715892   -1.1115840437
H       -4.0784078040    2.8377170546    0.1533971535
H        4.3074586856    2.5505397938    1.2700444764
H        5.5964734709   -1.0973563205   -0.5478820432
H       -5.8713523407   -0.6720038311    1.5985199151
H       -4.5489703019   -1.7466031667    1.1821481547
H       -5.9456778349   -1.6173109738    0.1325381979
H        6.1241055559    0.9822477935    0.6304844599
H        2.0016104706   -4.5092526323   -0.2792784431
H        0.6876378956   -4.6023751278   -1.4325245792
H        0.5713968473   -5.4838725181    0.1006303279
48   
Iteration 9 Energy -1141.51759106
O        0.6638469618   -2.2577639812   -0.3151330720
O       -3.2239395280    2.9002219213   -0.2369402648
O       -0.4569492304   -3.4345315332    1.1943721374
N       -1.4487456491    1.6116536163   -0.9397300165
N        1.6357565760    2.0672940167    0.7158498284
C       -1.2838175800   -0.7610950728   -0.2791926754
C       -1.1080375897    0.2721994160   -1.4376188489
C        0.9868335505    0.1028886988   -0.4076002097
C        0.1581026616   -1.0339715787    0.2165483174
C       -2.2183142316   -0.1292435453    0.7840273941
C        0.3694008539    0.2059504308   -1.8124451430
C       -0.7897298570    1.8615393514    0.3640682975
C       -1.4960406904    1.0405255009    1.4775266762
C        0.6458820049    1.4226100702    0.2696334406
C       -2.8960990586    1.6685625006   -0.8114204789
C       -3.3800157200    0.4802747123    0.0260099373
C        2.4782415738    0.1122247923   -0.2253950639
C        2.7927540130    1.2947251843    0.4440915455
C       -4.6408843646    0.0826804389    0.0038452562
C        3.4767819929   -0.7630543780   -0.5934858222
C        4.0919621402    1.6266988625    0.7636058651
C        0.2868915501   -3.3899643368    0.2686053607
C        4.7951410545   -0.4454576563   -0.2779364360
C       -5.2753209685   -1.0441069226    0.7740470880
C        5.0894636313    0.7326252582    0.3916307351
C        0.9531018403   -4.5821825764   -0.3615953757
H       -1.7228685861   -1.6822789997   -0.6371360415
H       -1.7502820499    0.0581758870   -2.2821531452
H        0.2455170569   -1.0811117346    1.2898326178
H       -2.5298346283   -0.8733840086    1.5032506424
H        0.5910986356   -0.6797978812   -2.3966749114
H        0.6950859201    1.0816994526   -2.3581649387
H       -0.8180757145    2.9167184631    0.5764079215
H       -2.2120049530    1.6601688309    2.0028247704
H       -0.7855566861    0.6943924713    2.2192492600
H       -3.3132086363    1.6149613576   -1.8125052260
H       -5.3204277093    0.6263843327   -0.6389423478
H        3.2486819068   -1.6745513252   -1.1144420626
H       -4.0635188808    2.8245433196    0.1943175530
H        4.3159372988    2.5434791029    1.2773139424
H        5.5886461075   -1.1160396318   -0.5562984134
H       -5.9235486592   -0.6590178583    1.5576112796
H       -4.5463123571   -1.6977067711    1.2347398889
H       -5.8957918217   -1.6468595405    0.1177618929
H        6.1138731792    0.9613520314    0.6260676654
H        2.0296959652   -4.4880574978   -0.2761661221
H        0.7076510530   -4.6234010636   -1.4164570580
H        0.6220756415   -5.4840749437    0.1312939014
48   
Iteration 10 Energy -1141.51778739
O        0.6552346266   -2.2599723433   -0.3239716753
O       -3.2232038969    2.9039057149   -0.2280762260
O       -0.4445662368   -3.4403121972    1.2007741555
N       -1.4496050841    1.6147991858   -0.9379054286
N        1.6351558607    2.0654789814    0.7155311561
C       -1.2872132157   -0.7593156985   -0.2837709606
C       -1.1111946465    0.2764596509   -1.4397961697
C        0.9839456923    0.1017708834   -0.4105785706
C        0.1536247296   -1.0358188520    0.2110986974
C       -2.2208620172   -0.1295752056    0.7810711537
C        0.3664470381    0.2084749627   -1.8149927853
C       -0.7903334585    1.8613190858    0.3667676085
C       -1.4969515789    1.0376818674    1.4784515360
C        0.6445309653    1.4211866588    0.2699542883
C       -2.8972251447    1.6748529038   -0.8086312323
C       -3.3823442150    0.4840398540    0.0250333023
C        2.4753994158    0.1063235272   -0.2287635067
C        2.7886808043    1.2895772950    0.4398065158
C       -4.6451911781    0.0904923672    0.0027302513
C        3.4729807081   -0.7704304382   -0.5965872886
C        4.0887550685    1.6189225631    0.7579172564
C        0.3050976410   -3.3921272906    0.2786468862
C        4.7899848014   -0.4487161568   -0.2788624456
C       -5.2801430250   -1.0369663220    0.7704591251
C        5.0910604457    0.7284536651    0.3896759817
C        0.9733820182   -4.5826809541   -0.3532367324
H       -1.7276626714   -1.6801139519   -0.6414707723
H       -1.7562480844    0.0653945761   -2.2832658522
H        0.2401256665   -1.0849351223    1.2844192044
H       -2.5338363453   -0.8768664764    1.4962655138
H        0.5859220651   -0.6769849154   -2.4007164582
H        0.6938750247    1.0844287040   -2.3597396948
H       -0.8168180639    2.9160302821    0.5823642969
H       -2.2140009911    1.6561544501    2.0038323592
H       -0.7875533155    0.6898643592    2.2206664095
H       -3.3170933731    1.6275285329   -1.8089324708
H       -5.3240796947    0.6345576010   -0.6408440408
H        3.2459773707   -1.6831236815   -1.1162266063
H       -4.0532467393    2.8217481323    0.2204247819
H        4.3114026745    2.5360703843    1.2715233942
H        5.5830442457   -1.1201583910   -0.5566160042
H       -5.9694917019   -0.6523140512    1.5183419970
H       -4.5546833296   -1.6616247300    1.2744436957
H       -5.8581578916   -1.6689719566    0.1023801767
H        6.1156366259    0.9571574811    0.6243253140
H        2.0496658174   -4.4833603826   -0.2691253118
H        0.7273812724   -4.6251746078   -1.4080514288
H        0.6474939961   -5.4862326010    0.1403551661
48   
Iteration 11 Energy -1141.51786366
O        0.6597632958   -2.2586553808   -0.3223257729
O       -3.2241250847    2.8997634459   -0.2283654265
O       -0.4805988965   -3.4330095648    1.1740502074
N       -1.4489037720    1.6111441885   -0.9375145944
N        1.6357166035    2.0692916356    0.7111742736
C       -1.2816279014   -0.7614409495   -0.2804458376
C       -1.1078884935    0.2732974708   -1.4373851665
C        0.9886897233    0.1020297762   -0.4108539816
C        0.1593454830   -1.0353648965    0.2126930045
C       -2.2147395776   -0.1313300991    0.7847223612
C        0.3694181932    0.2062685344   -1.8145536209
C       -0.7883155662    1.8613769719    0.3646005981
C       -1.4937616135    1.0402168370    1.4788226672
C        0.6471591123    1.4226593770    0.2677506740
C       -2.8953356776    1.6694160883   -0.8049755125
C       -3.3788222662    0.4779451254    0.0297928985
C        2.4809551443    0.1068206164   -0.2312593127
C        2.7880365339    1.2912425272    0.4370184907