113  
Iteration 0 Energy -2928.55400660
O       11.2935570000   10.4507290000    7.4148130000
O        6.1699870000   12.7748610000    3.4110760000
O        7.4683200000   10.8685000000   10.2399530000
O        6.4131820000   13.1536060000    8.9709260000
O        8.8470720000   11.4906650000    4.2646020000
O        9.4381040000   13.5169090000    3.5196580000
O        9.1542140000    9.2080860000    5.4310980000
O        7.9576170000    8.1653430000    6.8722420000
O        3.5733220000   12.0454460000    8.5594590000
O        4.1614470000   11.4328280000   10.4154310000
O        5.2272420000    8.2540630000    4.4061280000
O        3.0074810000    7.7166890000    4.3799070000
O        5.2495270000    5.5621360000    5.1914120000
O        2.2313880000    2.7727860000    4.0639110000
N        3.9628210000    3.6743060000    3.3340940000
C        6.1806450000   11.8126960000    4.5883300000
C        7.7367060000   11.8792360000    5.1961180000
C        7.9576170000   10.9779970000    6.4964080000
C        9.4206630000   10.2210680000    6.4409410000
C       10.0485140000    9.6932390000    7.7435840000
C        9.5010820000    9.9487310000    9.1564900000
C        7.9973420000   10.3653780000    9.0253850000
C        7.7463950000   11.6054950000    8.0054570000
C        6.3269500000   12.0945790000    8.4515490000
C        4.8900640000   11.2795330000    8.1987530000
C        4.9385090000   10.8791690000    6.6917200000
C        4.5790450000    9.7126110000    6.2180630000
C        4.7863910000    9.5786890000    4.7459920000
C        5.8066480000   10.4122650000    4.0037370000
C        4.9617630000   12.1105830000    5.8519780000
C        5.0353990000   13.3223430000    6.7209670000
C        3.4609290000   12.2099720000    5.5097610000
C        4.4433980000    8.5179780000    6.9952780000
C        8.4246290000   12.9416320000    8.3547340000
C       10.6763640000   10.8991030000    6.1716720000
C        9.4458550000   12.2956030000    3.3139240000
C       10.4951790000   11.6125140000    2.5041010000
C       10.7058190000   10.2525130000    2.3071070000
C       11.6721080000   10.1545280000    1.3127280000
C       12.3726260000   11.2267500000    0.7728460000
C       11.9994040000   12.5564290000    0.9298350000
C       11.0625700000   12.7487500000    1.9379970000
C        8.6222860000    8.0979610000    5.9057640000
C        8.3006090000    7.1925100000    4.7086770000
C        3.2371120000   11.8312260000    9.7999110000
C        1.9465300000   12.4741670000   10.4725790000
C        4.1459440000    7.3853920000    4.0578600000
C        4.6924070000    5.8667610000    3.8649010000
C        3.4425190000    4.9697330000    3.5452070000
C        2.7759130000    5.2824990000    2.2156700000
C        1.4795180000    4.7816240000    2.2365120000
C        0.9960340000    5.2252240000    1.0108510000
C        1.0677330000    5.9021370000   -0.2010270000
C        2.3961020000    6.2149030000    0.0631990000
C        3.2555210000    6.0175290000    1.1379220000
C        3.2090130000    2.6762040000    3.5031860000
C        3.9190270000    1.3403480000    3.3596430000
C        4.7853250000    0.9874330000    2.2533210000
C        5.5237270000   -0.3380350000    2.1373430000
C        5.2722000000   -1.1980030000    3.2708950000
C        4.4867080000   -0.9733950000    4.3402390000
C        3.7346440000    0.4208590000    4.4098260000
H        7.9421140000   12.8166940000    5.4862290000
H        7.2851970000   10.2589700000    6.4039620000
H       10.2258230000    8.7344440000    7.6410530000
H        9.5650300000    9.1359300000    9.6446030000
H       10.0582030000   10.5818440000    9.6916660000
H        7.4838220000    9.5907620000    8.7167840000
H        4.8561520000   10.3825050000    8.6865290000
H        3.9734790000    9.7451800000    4.3062860000
H        5.4181170000   10.5678060000    3.1599600000
H        6.5846780000    9.8322150000    3.8625470000
H        5.7494820000   13.1367600000    7.4191840000
H        4.1362550000   13.3922520000    7.1670590000
H        5.2194910000   14.2036480000    6.2392410000
H        3.1440970000   11.2640910000    5.3248690000
H        3.3359400000   12.8223090000    4.7365790000
H        2.9290000000   12.5247040000    6.3031120000
H        4.6924070000    7.7714370000    6.4073240000
H        3.4822450000    8.4368380000    7.2746320000
H        5.0567150000    8.5491420000    7.7755200000
H        7.7551160000   13.5438620000    8.7369540000
H        8.7327410000   13.3389080000    7.5166720000
H        9.1590590000   12.8335400000    9.0395040000
H       10.5823800000   11.8621100000    6.1215830000
H       11.1269050000   10.5593840000    5.3786560000
H        6.7435790000   13.3810220000    3.4793180000
H        7.6776030000   11.6880390000   10.3438280000
H       10.2849270000    9.5486480000    2.7498380000
H       11.8642420000    9.3043860000    0.9816050000
H       13.1373830000   11.0422910000    0.2756560000
H       12.3419120000   13.2462570000    0.4101230000
H       10.8246070000   13.6000140000    2.2220570000
H        8.3781220000    7.6759780000    3.8154840000
H        7.3675540000    6.8365060000    4.8239820000
H        8.9798120000    6.4378270000    4.7164090000
H        2.0560160000   12.5050500000   11.5136860000
H        1.1142410000   11.9659910000   10.2833180000
H        1.8205720000   13.4034820000   10.0984270000
H        5.4278060000    5.7527720000    3.1767690000
H        6.0701900000    5.3540930000    5.1433400000
H        2.8573010000    4.9497990000    4.3634350000
H        1.0502930000    4.2815900000    2.8910280000
H        0.1385530000    4.8627630000    0.9883280000
H        0.4747630000    6.0728390000   -0.8942020000
H        2.8049800000    6.6596270000   -0.6420770000
H        4.1188150000    6.3620220000    1.1328790000
H        4.7059720000    3.6161890000    2.8506880000
H        4.9433530000    1.6171780000    1.5060240000
H        6.0818170000   -0.6232870000    1.4690450000
H        5.7940520000   -2.0832390000    3.1801300000
H        4.3959220000   -1.6312160000    5.0324050000
H        3.1121230000    0.6738240000    5.1635100000
113  
Iteration 1 Energy -2928.86231591
O       11.2527594594   10.3630599990    7.3937578436
O        6.1699251201   12.8009502738    3.4160507958
O        7.4687600668   10.8164389099   10.2588791013
O        6.3102014310   13.1419311399    9.0734647348
O        8.8208053248   11.4911732029    4.2625887323
O        9.4227730708   13.5153261002    3.5250194937
O        9.0763778775    9.2001611293    5.4016181876
O        7.8541366058    8.1407444749    6.8319820775
O        3.5847954572   12.0212852081    8.5948387234
O        4.1100832149   11.3543225642   10.5219155210
O        5.2190168315    8.2830057174    4.4184187680
O        3.0008306796    7.7332808499    4.3907173145
O        5.2444970494    5.6029971873    5.2153766729
O        2.2381696863    2.7205952819    4.0992401736
N        3.9814653258    3.6991915808    3.3668075587
C        6.1793967577   11.8491189718    4.5926255220
C        7.7294434261   11.8970396065    5.2003943620
C        7.9284849003   10.9830415765    6.4990660584
C        9.3698070637   10.1929536491    6.4260910741
C        9.9932723458    9.6278824516    7.7146149862
C        9.4593068389    9.8710631688    9.1325717656
C        7.9672108164   10.3250677706    9.0258215746
C        7.7470189915   11.5835170017    8.0264272356
C        6.3252669491   12.0982377037    8.5052991195
C        4.9024360034   11.2787259973    8.2146736743
C        4.9497771659   10.9288253260    6.6954549854
C        4.5845255480    9.7546008561    6.2307440869
C        4.7819187965    9.6121915316    4.7553368166
C        5.8049468563   10.4484054131    4.0123791842
C        4.9701161081   12.1646648189    5.8415211227
C        5.0565182169   13.3959152585    6.6886878464
C        3.4664641067   12.2687961140    5.4899680652
C        4.4527240573    8.5585121043    7.0221186715
C        8.4908697654   12.8900620724    8.3825297256
C       10.6436343615   10.8491363558    6.1609598144
C        9.4173018413   12.2971396922    3.3146341633
C       10.4478982671   11.5952623223    2.4888201405
C       10.5952780355   10.2236233119    2.3153562419
C       11.5429357429   10.0302125940    1.3140635076
C       12.2930794935   11.0514673142    0.7394360149
C       11.9848765694   12.4029068764    0.8731572744
C       11.0699462046   12.6852173495    1.8838939967
C        8.5189238707    8.0856689695    5.8533960570
C        8.1774335951    7.2063875605    4.6423515557
C        3.2337408527   11.7718205972    9.8347025303
C        1.9259687350   12.4227141944   10.4527578093
C        4.1405331589    7.4153850524    4.0766055757
C        4.6918341518    5.9028198340    3.8903500766
C        3.4493103614    4.9992065555    3.5712194462
C        2.7829574788    5.3104885290    2.2386687777
C        1.4762630134    4.8180453587    2.2145832002
C        0.9934330132    5.2595373525    0.9894800278
C        1.1423071705    5.9614037677   -0.2020519323
C        2.4741977047    6.2817898118    0.0656704631
C        3.2883941923    6.0549986084    1.1732684612
C        3.2427940522    2.6684140107    3.5355855904
C        3.9979127918    1.3567599808    3.3905993316
C        4.8777861652    1.0489572900    2.2875763521
C        5.6527757769   -0.2427854565    2.1758983905
C        5.4350971015   -1.1276432887    3.2930984705
C        4.6325496257   -0.9316091966    4.3596110198
C        3.8396056803    0.4257992013    4.4313148642
H        7.9575277152   12.8386694185    5.4927638816
H        7.2302271994   10.2756253063    6.3969617890
H       10.1505255683    8.6552407059    7.5930836940
H        9.5079423080    9.0339763505    9.6152894828
H       10.0410712937   10.4893708765    9.6774296238
H        7.4200604560    9.5621687452    8.7071116152
H        4.8746736192   10.3612354444    8.6770471194
H        3.9513542795    9.7794221464    4.3084855364
H        5.4119937370   10.6079244289    3.1508503118
H        6.5926418251    9.8603499819    3.8726319687
H        5.7736719875   13.2271491394    7.3884975998
H        4.1552881703   13.4867795785    7.1431242863
H        5.2462607507   14.2697342544    6.1804430540
H        3.1375105955   11.3176910604    5.3116717543
H        3.3460128079   12.8794762300    4.7007932683
H        2.9298844862   12.5990559723    6.2843203635
H        4.6995508221    7.7959593663    6.4343585828
H        3.4849678082    8.4773430719    7.3129839334
H        5.0773796308    8.5945366564    7.8065973347
H        7.8581745989   13.5281067831    8.7884524073
H        8.8076684802   13.2893101306    7.5332125283
H        9.2387084847   12.7371394844    9.0572339783
H       10.5717125832   11.8291115359    6.1273451665
H       11.0902005888   10.5083586984    5.3496709580
H        6.7629871307   13.4204371542    3.4853344334
H        7.7074519516   11.6457059896   10.3793564844
H       10.1331108665    9.5419778390    2.7917928997
H       11.6864257633    9.1423685992    1.0006731147
H       13.0576985312   10.8118397417    0.2274391342
H       12.3663925213   13.0731944382    0.3194554216
H       10.8791538217   13.5750580513    2.1482919953
H        8.2599206940    7.7100483388    3.7525139978
H        7.2308857819    6.8618012233    4.7576087679
H        8.8480547405    6.4330531747    4.6310971431
H        1.9915067411   12.4403940263   11.5018395606
H        1.0883749489   11.9211292503   10.2172848399
H        1.8283184960   13.3655813177   10.0805110132
H        5.4349949824    5.7907086903    3.1984536225
H        6.0855714627    5.3937367761    5.1671712054
H        2.8564919216    4.9779458585    4.3942817436
H        1.0255727712    4.3041707252    2.8719812358
H        0.1105806195    4.9073938191    0.9155234847
H        0.5564202471    6.1494881189   -0.9229018458
H        2.9114019679    6.7430458783   -0.6409146554
H        4.1726460852    6.3999905799    1.1982606046
H        4.7425067192    3.6503966352    2.8757117593
H        5.0190645482    1.6965041194    1.5376537077
H        6.2373249402   -0.5063791190    1.4902911725
H        5.9909409083   -1.9985790570    3.1982689512
H        4.5564230629   -1.6047973494    5.0597083160
H        3.1996220554    0.6530342564    5.1891278608
113  
Iteration 2 Energy -2929.36141178
O       11.2644696970   10.5252989511    7.3811542429
O        6.1549448384   12.7609112020    3.4408624298
O        7.5063224077   10.7316757681   10.2866508037
O        6.3752944156   13.0714359954    9.1350524437
O        8.7718222142   11.5446764471    4.2947822542
O        9.2546658184   13.6141337482    3.5258523555
O        9.1386690957    9.2916940040    5.3827333316
O        7.9621933913    8.0648668344    6.7862317270
O        3.6278153100   11.9339188231    8.6312471949
O        4.0926312803   11.1934623837   10.6360472899
O        5.2352320406    8.2225098078    4.4349963292
O        3.0193716781    7.6872900734    4.3730260355
O        5.1789543977    5.5536284684    5.2542718397
O        2.1053721135    2.6673499625    4.1289595976
N        3.9501208323    3.6588423659    3.4074736986
C        6.1778858239   11.8359570486    4.6036135764
C        7.6963091611   11.9219700750    5.2280757936
C        7.9245683256   11.0120446631    6.5224201739
C        9.3829324882   10.2856144963    6.4235752327
C       10.0467058318    9.7248358315    7.6891606776
C        9.5054782732    9.9179121500    9.1061927828
C        8.0032138230   10.3063776715    9.0264735830
C        7.7381549382   11.5674245061    8.0538629225
C        6.3149786795   12.0267432909    8.5409288093
C        4.9226946316   11.2195717764    8.2321536137
C        4.9718764646   10.9228506523    6.7050942181
C        4.6106333277    9.7263299067    6.2437786376
C        4.8057577488    9.5667326705    4.7574886690
C        5.8380102757   10.4305727141    4.0225875412
C        4.9850132122   12.1550534022    5.8048266905
C        5.0966078135   13.4414384027    6.5994315324
C        3.4755883875   12.2278526972    5.4039939728
C        4.4821535816    8.5156798317    7.0654456533
C        8.4458839110   12.8849520953    8.4415859315
C       10.6369089054   11.0164777815    6.1596455367
C        9.2983810057   12.3986572963    3.3585741005
C       10.3366526746   11.7209775634    2.5161930830
C       10.4869252361   10.3435377641    2.3989361156
C       11.4065706122   10.0019235447    1.4026888070
C       12.1696358057   10.9672267013    0.7435444777
C       11.8746227877   12.3335677000    0.8131337371
C       10.9827891504   12.7386484417    1.8111070033
C        8.6378236217    8.1137709063    5.7847934768
C        8.3722775103    7.2522236204    4.5456642832
C        3.2686811260   11.6507264961    9.8795419494
C        1.9583647948   12.3242120742   10.4190269387
C        4.1570279272    7.3784480659    4.0980737280
C        4.6728412072    5.8703857085    3.9308535938
C        3.4292913355    4.9912526912    3.5917108907
C        2.7909592168    5.3292858673    2.2483118700
C        1.4540657682    4.8991416581    2.1013662621
C        0.9693529502    5.3398721365    0.8833395768
C        1.3708071146    6.0954406944   -0.2158086597
C        2.7181385049    6.4094832330    0.0498308172
C        3.3968112227    6.0849538431    1.2301053228
C        3.1722393472    2.6015576066    3.5713419454
C        3.9128429681    1.2790120972    3.4414888865
C        4.7987484466    0.9961453431    2.3581336755
C        5.5301982818   -0.2732548769    2.2786518961
C        5.3155234391   -1.1937563593    3.3512957531
C        4.4789924125   -0.9778360418    4.4029704023
C        3.7245863904    0.3453370542    4.4624685797
H        7.9008378067   12.9018398905    5.5195688961
H        7.2259967538   10.2606725902    6.4135311267
H       10.2582956575    8.7263988488    7.5418719862
H        9.5982903664    9.0291308379    9.5950893967
H       10.0762365639   10.5763242278    9.6753366663
H        7.4588340825    9.5018890149    8.6855607277
H        4.9061929808   10.2737611465    8.6839969830
H        3.9289656903    9.7301004890    4.2784338138
H        5.4349248539   10.5989553715    3.1075981319
H        6.6710870244    9.8379796366    3.8873795135
H        5.8336203098   13.3264235530    7.3145429143
H        4.1853270526   13.5872527294    7.0783857301
H        5.2961878892   14.2941504941    6.0147421943
H        3.1356324445   11.2515610967    5.2379866426
H        3.3614137541   12.8303976424    4.5642767667
H        2.9047644514   12.5899728334    6.1957130527
H        4.7404151620    7.7088967173    6.4792360213
H        3.4876791698    8.4230954805    7.3720695209
H        5.1242523078    8.5616792084    7.8778976231
H        7.7585844176   13.5103784444    8.8829371656
H        8.7669439447   13.3390146611    7.5739167405
H        9.2218885564   12.7336412332    9.1278848262
H       10.5199482343   12.0367481489    6.1478986617
H       11.1169936687   10.7026208628    5.3060411424
H        6.7767473621   13.4302426762    3.5286687158
H        7.7266554416   11.6124264677   10.4410042207
H        9.9905063773    9.6747130084    2.9646613589
H       11.5221916951    9.0319835506    1.1485695709
H       12.9635202220   10.6655980605    0.1999911939
H       12.2864156771   12.9913512362    0.1714387624
H       10.8133927941   13.7073597396    2.0161755736
H        8.4193139586    7.8121565759    3.6590438736
H        7.4296222207    6.8254706946    4.6511032721
H        9.1151732676    6.5098087812    4.5011023013
H        1.9761708454   12.3324426318   11.4836714857
H        1.0967943487   11.8244634010   10.1227396547
H        1.9034852004   13.2974093069   10.0375566410
H        5.4461215020    5.7437532577    3.2352016055
H        6.0650684983    5.3124669621    5.2176963687
H        2.7994903686    4.9813291990    4.4222265569
H        0.9340538513    4.3584145622    2.7691385972
H        0.0220689122    5.0506853079    0.6613916524
H        0.8194200047    6.3529185817   -1.0139304444
H        3.2423854047    6.9052516123   -0.6574583474
H        4.3448008345    6.4026959533    1.3459406675
H        4.7639064523    3.5880669094    2.9084721741
H        4.9642804366    1.6738268916    1.5935676194
H        6.1629065148   -0.5367270759    1.5494261562
H        5.8748280092   -2.0859038883    3.2585652462
H        4.3659824916   -1.6784333377    5.1345612202
H        3.0547231883    0.5735104799    5.2287474408
113  
Iteration 3 Energy -2929.61213320
O       11.1164731953   10.2144262687    7.4149111970
O        6.1975630491   12.8137253454    3.5220576961
O        7.4652994243   10.7531592824   10.3693486448
O        5.9926656576   13.0927298111    9.2562516070
O        8.6841883535   11.5162657302    4.3203198833
O        9.1452478783   13.6111462268    3.5982192611
O        8.8855452770    9.1669798635    5.4235132353
O        7.6096321341    7.9870742996    6.8174049074
O        3.7200847843   11.9543942078    8.6031225386
O        4.1267716873   11.1736477447   10.6197498307
O        5.2762143521    8.2665932524    4.4486214099
O        3.0743941554    7.6714093556    4.3574767173
O        5.2495741689    5.6211225817    5.2724087635
O        2.2527003073    2.7072964823    4.1180729579
N        4.1312966647    3.6962659792    3.4212399098
C        6.2080641563   11.9016003617    4.6563583720
C        7.6837810953   11.9253584920    5.2862679081
C        7.8455987092   10.9882489293    6.5707648527
C        9.2143538722   10.1420510584    6.4644564022
C        9.8420599162    9.5214928866    7.7202266855
C        9.3254529028    9.7697838280    9.1331757253
C        7.8759673790   10.2945735004    9.0884518350
C        7.7327824165   11.5448384496    8.0946026917
C        6.3027352700   12.1110361771    8.6208780234
C        4.9982891019   11.2724159745    8.2312461656
C        5.0418096204   11.0099612496    6.7189875491
C        4.6799151896    9.7944914951    6.2672953770
C        4.8502095641    9.6184373276    4.7732972516
C        5.8840506018   10.5066287082    4.0586244067
C        5.0579830796   12.2433362575    5.8055827904
C        5.2227658464   13.5593662826    6.5764081601
C        3.5542867431   12.3388881276    5.3543212762
C        4.5615037664    8.5746955823    7.1193729029
C        8.6734714832   12.7553788816    8.3945944872
C       10.5431092854   10.7698083218    6.1970583411
C        9.1722047372   12.4066946272    3.4089862364
C       10.1406691044   11.7441148514    2.4811644662
C       10.2611150042   10.3684452639    2.3106368670
C       11.1056470474    9.9682820907    1.2681794184
C       11.8687988476   10.9061847283    0.5654467284
C       11.6219166104   12.2812790508    0.6794107630
C       10.8005899105   12.7157750201    1.7253054333
C        8.2812431156    8.0179471328    5.7994957741
C        7.9599001378    7.1590741220    4.5769741824
C        3.3291765433   11.6553967809    9.8455255348
C        2.0084766801   12.3204004711   10.3056656019
C        4.2259229133    7.4176384006    4.1184853185
C        4.7700187926    5.9418282018    3.9561470653
C        3.5682426170    5.0325334521    3.5936286295
C        2.9371302029    5.3786630193    2.2507608042
C        1.6120284870    4.9365570714    2.0392897120
C        1.0720630426    5.3472859607    0.8384292303
C        1.5875738833    6.1459750315   -0.1792046283
C        2.9202040499    6.5082991480    0.0839551746
C        3.5684909659    6.1678417333    1.2755406699
C        3.3492876689    2.6125297451    3.5781910516
C        4.0741367753    1.2856714045    3.4589341654
C        4.9640671064    1.0098867707    2.3964911525
C        5.6531455864   -0.2319892164    2.3407943436
C        5.4344682515   -1.1691510309    3.3808808467
C        4.5697582374   -0.9264815312    4.4199853905
C        3.8598633726    0.3525569098    4.4663473695
H        7.9559338239   12.9109328783    5.5933029353
H        7.0698736705   10.2786208447    6.4577468775
H        9.9726576821    8.4800096460    7.5672399380
H        9.3402909806    8.8496845327    9.6486425572
H        9.9766579492   10.3996525939    9.6949537041
H        7.2192425209    9.5303138495    8.7644864518
H        4.9963357039   10.3070472691    8.6818268032
H        3.9367778570    9.7766658413    4.2817401225
H        5.4845236482   10.6957599866    3.1053342754
H        6.7508427578    9.9092439969    3.9267135742
H        5.9820488114   13.4719909290    7.3096702438
H        4.3072541075   13.7688941565    7.0764228701
H        5.4485055889   14.3900858504    5.9351113679
H        3.1703643047   11.3591521819    5.1773040427
H        3.4690521069   12.9492939666    4.4832471099
H        2.9652068920   12.7351843683    6.1474615139
H        4.8202955505    7.7275919079    6.5404466718
H        3.5502160044    8.4734538964    7.4534272441
H        5.2255616690    8.6283218192    7.9472025542
H        8.1483616634   13.5399232306    8.8582021175
H        9.0326567754   13.1291421876    7.4681142559
H        9.4755347986   12.4845854878    9.0497008229
H       10.5236293052   11.8290548102    6.1921584356
H       11.0105543861   10.4095396805    5.3170940610
H        6.8491968846   13.4901293175    3.6350479844
H        7.7895018420   11.6297518480   10.5227833079
H        9.7556244975    9.6902639043    2.9210200281
H       11.1665152030    8.9574696878    1.0050254453
H       12.6432531309   10.5711862506   -0.0521797492
H       12.0387972540   12.9563495160    0.0000333070
H       10.6792131125   13.7273945311    1.9468818516
H        8.0345801475    7.7253615572    3.6726322386
H        6.9724891447    6.7848620943    4.7000241507
H        8.6652532429    6.3513734921    4.5226411438
H        1.9770833880   12.3217436285   11.3819715842
H        1.1450544158   11.8057920679    9.9489176692
H        1.9743852205   13.3168440582    9.9178814720
H        5.5730780888    5.8441060333    3.2563598222
H        6.1671769930    5.3969157831    5.2436947642
H        2.9070894864    4.9982926239    4.4278313280
H        1.0884460206    4.3519113792    2.7236854278
H        0.1017127265    5.0422407999    0.5676917717
H        1.0484412974    6.4315383394   -1.0219660620
H        3.4599460032    7.0523421075   -0.6292352052
H        4.5419425659    6.5111240568    1.4346969908
H        4.9805665635    3.6291081432    2.9250775549
H        5.1495324648    1.7093512114    1.6206073237
H        6.3165664957   -0.4914629876    1.5836606329
H        5.9893147211   -2.0836416936    3.3001863215
H        4.4217852672   -1.6412751383    5.1765097015
H        3.1668195162    0.5841079732    5.2390166608
113  
Iteration 4 Energy -2929.67684937
O       11.1940230422   10.5023611331    7.4380856176
O        6.1785968693   12.7382621847    3.5174229017
O        7.5259192208   10.7498058842   10.3918213610
O        5.9782794096   13.0245653667    9.2728676041
O        8.6877747128   11.5742137852    4.3535219570
O        8.9962573316   13.6880241082    3.6210750198
O        9.0770499522    9.2838705978    5.4413160456
O        7.9030618427    7.9386783889    6.7959854753
O        3.7253356581   11.8154298454    8.5966129040
O        4.0461740101   11.0276935287   10.6818164276
O        5.3330490545    8.1618743207    4.4593120574
O        3.1251260064    7.6476620807    4.3478484290
O        5.1619841580    5.4872638956    5.3022322774
O        2.0488456794    2.6673146638    4.1124386900
N        3.9831628583    3.6257611631    3.4488988887
C        6.2089289626   11.8421404046    4.6510350543
C        7.6670313109   11.9402084224    5.3051019088
C        7.8854453704   11.0268286557    6.5928603636
C        9.3063161679   10.2826022927    6.4842220234
C        9.9807529022    9.7094051969    7.7354786822
C        9.4398625163    9.9153267766    9.1435454137
C        7.9607419725   10.3346172178    9.1042779756
C        7.7408464801   11.5685721304    8.1117753287
C        6.2726862106   12.0442069623    8.6269101222
C        5.0075135880   11.1744804265    8.2235323638
C        5.0601937391   10.9353075474    6.7086123642
C        4.7278631438    9.7096496797    6.2551942985
C        4.9059258104    9.5205543725    4.7615543367
C        5.9336562761   10.4341974770    4.0538891060
C        5.0521616609   12.1589455555    5.7644349052
C        5.1950614108   13.5072869734    6.4877526088
C        3.5538220962   12.2004183462    5.2840839405
C        4.6247906467    8.4842294007    7.1139583037
C        8.6203447080   12.8251031978    8.4159467806
C       10.5865018649   11.0181332121    6.2195128969
C        9.1180768156   12.4888149624    3.4405827200
C       10.1228156672   11.8821492393    2.5114648963
C       10.3060188873   10.5079196760    2.3785884145
C       11.1624964459   10.0919850409    1.3533783871
C       11.8873704754   11.0306460359    0.6116275726
C       11.5852944401   12.3974930958    0.6841342206
C       10.7486687135   12.8441498960    1.7115228115
C        8.5804047227    8.0779341166    5.7907594153
C        8.3999029536    7.2391967388    4.5319257446
C        3.3168968404   11.5068059814    9.8394237485
C        1.9814346528   12.1751968987   10.2122647880
C        4.2683450255    7.3394478758    4.1307794226
C        4.7296586393    5.8412644147    3.9820902559
C        3.4897691719    4.9980436595    3.6043706191
C        2.8933678783    5.3834170668    2.2557729312
C        1.5509194053    5.0283424798    2.0041010209
C        1.0342271592    5.4633328152    0.8000737175
C        1.6521981372    6.2357036181   -0.1812941122
C        2.9963524145    6.5260238535    0.0961460896
C        3.5917209292    6.1377605534    1.3003204854
C        3.1595043740    2.5620558471    3.5971212233
C        3.8510506221    1.2208761705    3.4822339054
C        4.7518986668    0.9297345842    2.4385509517
C        5.4004458523   -0.3199933772    2.3936469542
C        5.1425614984   -1.2605795944    3.4157629658
C        4.2590561870   -0.9920214519    4.4388866129
C        3.5934042417    0.2856065960    4.4772705575
H        7.8781449685   12.9521054955    5.6009104953
H        7.1510842908   10.2652427424    6.4812963765
H       10.1959301857    8.6734995877    7.5779065072
H        9.5232058158    8.9885628852    9.6634870323
H       10.0433032412   10.5998377772    9.7091620390
H        7.3489628946    9.5232506822    8.7787890512
H        5.0325288370   10.2019363977    8.6695650605
H        3.9842627893    9.6587625829    4.2548335365
H        5.5381881094   10.6154831380    3.0848648575
H        6.8262242886    9.8575960908    3.9320952574
H        5.9593500456   13.4777503744    7.2249440346
H        4.2733444629   13.7288594485    6.9854679914
H        5.4074392674   14.3135076454    5.8013927927
H        3.1892765853   11.2047602888    5.1185768929
H        3.4641257669   12.7925055870    4.3910493492
H        2.9403483458   12.6034525330    6.0649161697
H        4.9045782680    7.6289248899    6.5416598660
H        3.6072564317    8.3615924447    7.4464390425
H        5.2847208470    8.5494786777    7.9538719045
H        8.0531403037   13.5887363267    8.8856451707
H        8.9690954423   13.2254785968    7.4864768374
H        9.4415928197   12.5923284826    9.0730236712
H       10.4859476733   12.0825724156    6.2180814997
H       11.0895161619   10.6964489747    5.3328028673
H        6.8096739180   13.4439733786    3.6398922276
H        7.7938576293   11.6516823947   10.5527783155
H        9.8232533602    9.8259057824    3.0217920575
H       11.2617937630    9.0629369308    1.1303175488
H       12.6799227170   10.7012078928   -0.0058067179
H       11.9811200471   13.0707203810   -0.0269156524
H       10.5884200630   13.8695759898    1.8934507781
H        8.4386495062    7.8520083254    3.6488451523
H        7.4529511410    6.7543687229    4.6099605223
H        9.1960434055    6.5109701127    4.4691460469
H        1.8911255353   12.1878013023   11.2889028548
H        1.1340504754   11.6521871934    9.8077201952
H        1.9715764349   13.1738621037    9.8101512783