48   
Iteration 0 Energy -1329.36851271
H        4.1933210000    6.9754300000   -1.6206110000
C        3.2013860000    6.6579010000   -1.9246900000
H        2.5534440000    7.5079470000   -2.1112870000
H        2.7288480000    6.0495630000   -1.1605840000
O        3.3526980000    5.9112070000   -3.0980420000
C        2.0681970000    5.4304370000   -3.5985600000
H        1.4127150000    6.2750140000   -3.8160770000
O        1.3872450000    4.5699730000   -2.6264170000
C        0.0841770000    3.9968410000   -3.0831000000
H       -0.5942830000    4.8228550000   -3.3063830000
C       -0.5265990000    3.1522530000   -1.9480650000
H        0.1240080000    2.3082680000   -1.7142270000
H       -1.5015940000    2.7630990000   -2.2413990000
O       -0.6842490000    3.9620040000   -0.7677890000
H        0.1626130000    4.3725460000   -0.5684830000
C        0.2858980000    3.1758840000   -4.2796490000
H        0.8837140000    2.2993420000   -4.0212810000
C        1.0028290000    3.9762600000   -5.3939710000
H        0.3379330000    4.7652660000   -5.7515260000
O        1.2937510000    3.0804870000   -6.5017040000
H        1.8105290000    3.5795160000   -7.1490060000
C        2.3191060000    4.6143660000   -4.8967180000
H        3.0486930000    3.8280100000   -4.6922390000
O        2.8481670000    5.4841830000   -5.9404020000
H        3.6312980000    5.9288990000   -5.5909890000
O       -1.0029700000    2.7328370000   -4.7687640000
C       -0.8688300000    1.9067440000   -5.9650820000
H       -0.2682710000    1.0233700000   -5.7431370000
O       -0.2171350000    2.6315740000   -7.0641160000
C       -0.1479370000    1.9130140000   -8.3732790000
H        0.4430460000    1.0060260000   -8.2298410000
C        0.5734310000    2.7906400000   -9.4115090000
H        0.0699880000    3.7519490000   -9.5242550000
H        0.5910900000    2.2932350000  -10.3812390000
O        1.9250530000    3.0142520000   -8.9778200000
H        1.8912680000    3.4351960000   -8.1145790000
C       -1.4503940000    1.5469190000   -8.8528020000
H       -1.3479720000    0.9469220000   -9.7582270000
O       -2.2056790000    2.7402430000   -9.1770270000
H       -3.1071480000    2.4593720000   -9.3857240000
C       -2.2068490000    0.7283240000   -7.7814510000
H       -1.6710230000   -0.2112950000   -7.6315460000
O       -3.5359390000    0.4061010000   -8.2781580000
H       -4.0035950000   -0.0616460000   -7.5727510000
C       -2.2913000000    1.4718940000   -6.4275010000
H       -2.9285630000    2.3527120000   -6.5300590000
O       -2.8820620000    0.5769020000   -5.4382220000
H       -2.8649690000    1.0289240000   -4.5858090000
48   
Iteration 1 Energy -1329.48259887
H        4.1225675186    7.0264639317   -1.4889187067
C        3.1461373842    6.6988564754   -1.8278620262
H        2.4953911890    7.5436761021   -2.0294535072
H        2.6574935723    6.0811510449   -1.0822545527
O        3.3466285442    5.9610450506   -3.0016006181
C        2.0997736896    5.4680690747   -3.5504069664
H        1.4400884949    6.3033010890   -3.7861488975
O        1.3963488255    4.5900461381   -2.6104999585
C        0.1209296941    3.9996599913   -3.1201814638
H       -0.5650340725    4.8126467545   -3.3629307335
C       -0.5091519383    3.1437358798   -2.0083086777
H        0.1492485565    2.3121466444   -1.7557007226
H       -1.4652650253    2.7385098647   -2.3338174678
O       -0.7217566728    3.9429688197   -0.8361613991
H        0.1083155162    4.3672167522   -0.6093785246
C        0.3810735967    3.1905798727   -4.3134708300
H        0.9851562635    2.3235134371   -4.0412959442
C        1.1268374907    4.0099373250   -5.3945784008
H        0.4539847844    4.7848573208   -5.7651990297
O        1.4776917879    3.1398186162   -6.4921920100
H        1.9734571605    3.6032312888   -7.1693984288
C        2.4129318718    4.6651962972   -4.8435594154
H        3.1464799449    3.8895871573   -4.6197991854
O        2.9614654129    5.5490700611   -5.8545058009
H        3.7210007219    6.0016084013   -5.4729943748
O       -0.9255049821    2.7261990347   -4.8161490637
C       -0.8897109933    1.8859043507   -6.0052007431
H       -0.2954465221    0.9961607369   -5.7962911753
O       -0.2634544131    2.5999638938   -7.1258624514
C       -0.2327908556    1.8724968430   -8.4315716210
H        0.3458895382    0.9564507882   -8.3008117742
C        0.5299726939    2.7489819709   -9.4488109629
H        0.0546768774    3.7233883206   -9.5584177888
H        0.5363163091    2.2525398346  -10.4175946713
O        1.9139620864    2.9505917944   -9.0281913358
H        1.9725302439    3.3902105298   -8.1596745029
C       -1.5490638457    1.5105842484   -8.8739172875
H       -1.4744918364    0.9042899013   -9.7772882682
O       -2.3034381221    2.7015629576   -9.1843568556
H       -3.2085112764    2.4247221913   -9.3663783154
C       -2.2816810524    0.7031873717   -7.7777885030
H       -1.7482291901   -0.2381983939   -7.6354006174
O       -3.6189922825    0.3888227382   -8.2366103168
H       -4.0699669418   -0.0696540776   -7.5187419282
C       -2.3265647571    1.4559170843   -6.4270137496
H       -2.9596912904    2.3391168502   -6.5188094536
O       -2.8956819902    0.5731802689   -5.4234929257
H       -2.8548367083    1.0284473656   -4.5771050523
48   
Iteration 2 Energy -1329.56234567
H        4.0215593105    6.9902163726   -1.3860973229
C        3.0500637636    6.6839201701   -1.7461062531
H        2.4343663386    7.5553729991   -1.9519274035
H        2.5448373044    6.0855920862   -0.9993198852
O        3.2672438215    5.9402254968   -2.9222029995
C        2.1043801423    5.4730431732   -3.5198703950
H        1.4571652317    6.3062270484   -3.7773531586
O        1.3651820821    4.5854289424   -2.6171615799
C        0.1219789392    3.9837441650   -3.1893908820
H       -0.5587287114    4.7837966972   -3.4647545277
C       -0.5184080011    3.1709123316   -2.0734470814
H        0.1427223316    2.3563598714   -1.7874176232
H       -1.4555121386    2.7564787134   -2.4110008457
O       -0.7823791080    3.9787667964   -0.9511698755
H        0.0300113674    4.4118513554   -0.7181824614
C        0.4477755389    3.1806197642   -4.3705228697
H        1.0474678231    2.3204408598   -4.0863842085
C        1.2366920738    4.0103867341   -5.4123488997
H        0.5719578317    4.7736500721   -5.8070427651
O        1.6099824852    3.1486284211   -6.4508588996
H        2.0838804576    3.6068364866   -7.1357663863
C        2.4878993286    4.6769327747   -4.7981650665
H        3.2077101076    3.9091790269   -4.5351311432
O        3.0511422186    5.5354618790   -5.7679600149
H        3.7814002176    5.9874388508   -5.3589747987
O       -0.8278782983    2.7159829424   -4.8859905923
C       -0.8325296505    1.8941447144   -6.0334721277
H       -0.2368511954    1.0073507136   -5.8376903683
O       -0.2559315447    2.5985353355   -7.1864376421
C       -0.2874938213    1.8623493626   -8.4872293382
H        0.2877601961    0.9444371299   -8.3787795004
C        0.4670584087    2.7380294804   -9.4972414503
H       -0.0063036092    3.7082838004   -9.5732158082
H        0.4520541039    2.2600815981  -10.4673214599
O        1.8543339164    2.9070789202   -9.1699038682
H        1.9717929897    3.3299300191   -8.3069178819
C       -1.6238257858    1.5022358736   -8.8663865034
H       -1.5979741222    0.8873846537   -9.7634989545
O       -2.3738923910    2.6717299429   -9.1430610918
H       -3.2761480549    2.4003897895   -9.2773809741
C       -2.3081016702    0.7047292079   -7.7324263489
H       -1.7782209234   -0.2367432809   -7.6032968218
O       -3.6348951552    0.4211727449   -8.1282975559
H       -4.0602838877   -0.0191422287   -7.3996693800
C       -2.2885974592    1.4665258780   -6.3861372199
H       -2.9113695064    2.3503316553   -6.4602300072
O       -2.8168710289    0.5999556241   -5.3948795893
H       -2.7491371760    1.0454750111   -4.5580752121
48   
Iteration 3 Energy -1329.60459367
H        3.9376673790    6.9605513850   -1.2890663601
C        2.9719349880    6.6814785665   -1.6820720865
H        2.4092966188    7.5740583584   -1.9416322034
H        2.4211050272    6.1191670433   -0.9422055983
O        3.2101474537    5.8999751672   -2.8279912443
C        2.1126114677    5.4559347642   -3.4898678439
H        1.4837101984    6.2859308838   -3.8068286235
O        1.3109705805    4.5846112636   -2.6253892475
C        0.1071841305    3.9769331969   -3.2708739880
H       -0.5461780925    4.7759977275   -3.6053566152
C       -0.5854034466    3.2180299704   -2.1536238569
H        0.0616359885    2.4102414554   -1.8167166356
H       -1.5073749766    2.7934338571   -2.5195339682
O       -0.9063802626    4.0655841420   -1.0924048352
H       -0.1142193008    4.5147330238   -0.8273880689
C        0.5092501920    3.1543153979   -4.4144944842
H        1.0899035610    2.2942769034   -4.0927375857
C        1.3696959020    3.9654631614   -5.4134822164
H        0.7288099338    4.7268613690   -5.8525115836
O        1.8074894771    3.0791622237   -6.3866772671
H        2.2446379816    3.5642349166   -7.0769125881
C        2.5788601056    4.6386423822   -4.7266222129
H        3.2666840486    3.8692710004   -4.3896193563
O        3.1935648467    5.4605792804   -5.6740523323
H        3.9100993572    5.9277818604   -5.2623249771
O       -0.7209868573    2.7083578183   -4.9658390516
C       -0.7397291713    1.9103857654   -6.0818549467
H       -0.1230298173    1.0292277240   -5.9236166911
O       -0.2466368186    2.6255543759   -7.2664877129
C       -0.3504143203    1.8923791198   -8.5652214340
H        0.2425723093    0.9825317228   -8.4871511861
C        0.3523608735    2.7914932629   -9.5558737268
H       -0.1319837643    3.7590019268   -9.5801359528
H        0.3123342671    2.3543621036  -10.5446400109
O        1.7109046285    2.8998139569   -9.2429089589
H        1.8778129389    3.2636060188   -8.3803575383
C       -1.7030691320    1.5150691494   -8.8604961324
H       -1.7218765620    0.8909962909   -9.7528198833
O       -2.4837703638    2.6602762847   -9.0879390410
H       -3.3907641245    2.3912288340   -9.1667509202
C       -2.3035637257    0.7053751207   -7.6883537274
H       -1.7515475311   -0.2275226810   -7.5851150224
O       -3.6369087609    0.4288742108   -8.0080729653
H       -4.0446942691   -0.0108806229   -7.2718720958
C       -2.2092890841    1.4638763801   -6.3433640905
H       -2.8363623375    2.3466387062   -6.3871203354
O       -2.6689314735    0.5887246405   -5.3487204220
H       -2.5810451524    1.0051405751   -4.5009994033
48   
Iteration 4 Energy -1329.62730947
H        3.8722041827    7.0044253115   -1.2667135915
C        2.9228019035    6.7362991640   -1.7046020793
H        2.4375931449    7.6308283700   -2.0846544134
H        2.2963126703    6.2742694672   -0.9553732400
O        3.2036478400    5.8390092159   -2.7499014408
C        2.1448442856    5.3944243618   -3.4809872714
H        1.5610180543    6.2187766088   -3.8923023494
O        1.2529692354    4.5969046767   -2.6338289338
C        0.0842120196    3.9837760593   -3.3360431956
H       -0.5072099356    4.7859488670   -3.7644151033
C       -0.7019674862    3.3234674761   -2.2149903460
H       -0.1027286827    2.5191541509   -1.7914729433
H       -1.6143245342    2.8981331962   -2.6072889827
O       -1.0716731330    4.2481418485   -1.2443666526
H       -0.2849609317    4.6937190197   -0.9584308550
C        0.5474544833    3.0848271947   -4.3960065713
H        1.0779756983    2.2243174553   -3.9931417289
C        1.5064097034    3.8128164757   -5.3690124754
H        0.9270026825    4.5650569853   -5.8980240779
O        2.0638572415    2.8709079596   -6.2548567716
H        2.4151242574    3.4319019350   -6.9482559396
C        2.6793569195    4.4936133583   -4.6289209721
H        3.3036707433    3.7255076201   -4.1821313203
O        3.3804706144    5.2328310392   -5.5807800024
H        4.1008208420    5.6853855907   -5.1607603292
O       -0.6454273624    2.6750070522   -5.0145092534
C       -0.6564155989    1.8934998513   -6.1264288779
H        0.0188265453    1.0451507408   -6.0375489982
O       -0.2678484495    2.6785807711   -7.3056763152
C       -0.4268890226    1.9984744261   -8.6274881218
H        0.2050320816    1.1132719826   -8.6168448870
C        0.1986808733    2.9834413695   -9.5767451034
H       -0.3012706750    3.9415793536   -9.4865877495
H        0.0987294031    2.6506593357  -10.6034310237
O        1.5523892228    3.0415388350   -9.3162336172
H        1.6917657050    3.2508379942   -8.4014836941
C       -1.7804228494    1.5794595092   -8.8546393477
H       -1.8162587360    0.9720409649   -9.7590752352
O       -2.6157248625    2.6936936674   -9.0026497113
H       -3.5124226000    2.3850173112   -9.0355078527
C       -2.2733103854    0.6961830042   -7.6854513838
H       -1.6779863181   -0.2155718843   -7.6527565908
O       -3.6141282221    0.3957126816   -7.9407146251
H       -3.9702127706   -0.0784923661   -7.1997383882
C       -2.1217378607    1.3991889471   -6.3157735333
H       -2.7685656411    2.2692973873   -6.3005818259
O       -2.4924578817    0.4696378719   -5.3392594688
H       -2.4021414196    0.8591080358   -4.4797100954
48   
Iteration 5 Energy -1329.63561146
H        3.8782572623    6.9786982347   -1.1937710478
C        2.9381410129    6.7259693580   -1.6613224129
H        2.5025723665    7.6219300930   -2.0940636814
H        2.2662527279    6.3167212039   -0.9196271263
O        3.2244762747    5.7792346540   -2.6587489851
C        2.1800934502    5.3782019480   -3.4270351413
H        1.6388812550    6.2279055342   -3.8411055016
O        1.2420927488    4.6017754381   -2.6106574345
C        0.0794584234    4.0222425119   -3.3505547337
H       -0.4764061002    4.8426198263   -3.7902340413
C       -0.7490309743    3.3749573156   -2.2543506866
H       -0.1773384002    2.5551642210   -1.8231008949
H       -1.6595662772    2.9703672323   -2.6736630043
O       -1.1191874367    4.3040970716   -1.2884137312
H       -0.3316257236    4.7300435120   -0.9760225751
C        0.5508348641    3.1148971199   -4.3997227802
H        1.0413453206    2.2398217287   -3.9785542305
C        1.5578543849    3.8204625104   -5.3401445792
H        1.0274135498    4.5865977796   -5.8926796415
O        2.1248379871    2.8742823373   -6.2281822315
H        2.5166343566    3.3874079450   -6.9229884745
C        2.7253102042    4.4674006310   -4.5619781589
H        3.3081088261    3.6800004890   -4.0956556320
O        3.4739157814    5.1901357678   -5.4876941810
H        4.2213822281    5.5823044210   -5.0554653770
O       -0.6343799838    2.7205720376   -5.0638725054
C       -0.6419823086    1.9124620532   -6.1679799286
H        0.0747692614    1.1029326146   -6.0829477717
O       -0.3050208870    2.7034292174   -7.3591092028
C       -0.4749270453    2.0129449112   -8.6741713007
H        0.1908952365    1.1543018187   -8.6659290672
C        0.1090073171    3.0223256677   -9.6485341351
H       -0.4073298603    3.9689776122   -9.5300754922
H       -0.0268792026    2.6983386948  -10.6747600628
O        1.4826209023    3.1295174602   -9.4066288221
H        1.5719744791    3.2550856343   -8.4709627890
C       -1.8203515188    1.5528448035   -8.8674738534
H       -1.8449307949    0.9247262342   -9.7583642500
O       -2.6950727652    2.6326578288   -9.0198405804
H       -3.5825379080    2.2970473429   -9.0268450986
C       -2.2588658782    0.6605789043   -7.6835470301
H       -1.6370141768   -0.2331560289   -7.6675405016
O       -3.5973060253    0.3226009061   -7.9043281176
H       -3.9279800995   -0.1457884120   -7.1483660473
C       -2.0959731182    1.3739460458   -6.3205421620
H       -2.7586734061    2.2314313038   -6.2977633392
O       -2.4188513902    0.4439115278   -5.3311308096
H       -2.3688138862    0.8568330808   -4.4796482600
48   
Iteration 6 Energy -1329.63929824
H        3.9117082414    6.9236233511   -1.1040921252
C        2.9817623944    6.6919046204   -1.6027947672
H        2.6012541277    7.5879286577   -2.0844632469
H        2.2612839600    6.3424712842   -0.8749365751
O        3.2628619100    5.6965501386   -2.5530926408
C        2.2304091340    5.3467448599   -3.3747547498
H        1.7442489264    6.2246005717   -3.7942277261
O        1.2308522258    4.5985380888   -2.6064913723
C        0.0760321727    4.0758353752   -3.3990804958
H       -0.4350737175    4.9219397231   -3.8445845522
C       -0.8209808186    3.4336848706   -2.3537987504
H       -0.2963558632    2.5873807050   -1.9145862092
H       -1.7258039992    3.0699419159   -2.8195831118
O       -1.2019118159    4.3519560842   -1.3794591106
H       -0.4111381434    4.7364706048   -1.0239670629
C        0.5517562571    3.1635657151   -4.4419973960
H        0.9866023109    2.2665366980   -4.0087549982
C        1.6222761571    3.8397601190   -5.3325322140
H        1.1515992479    4.6300113960   -5.9047374324
O        2.1883577647    2.8791673583   -6.2015950113
H        2.6443209566    3.3522003311   -6.8871724105
C        2.7830916692    4.4291281426   -4.5005600515
H        3.3170178053    3.6153112545   -4.0215685182
O        3.6002802415    5.1370764972   -5.3801088672
H        4.3727793342    5.4339198875   -4.9163978851
O       -0.6429271199    2.8189742679   -5.1255731781
C       -0.6420613013    1.9697725020   -6.1993877817
H        0.1203912938    1.2084096014   -6.1025775592
O       -0.3699400935    2.7607812826   -7.4069539966
C       -0.5263098281    2.0436896665   -8.7093952137
H        0.1913603053    1.2278698774   -8.7057008641
C       -0.0324102400    3.0810610810   -9.6974068538
H       -0.5903226595    3.9998907847   -9.5637020317
H       -0.1577261363    2.7497536173  -10.7205402638
O        1.3336636845    3.2761955499   -9.4390291536
H        1.3901176327    3.3010530631   -8.4871121418
C       -1.8482881704    1.5094258108   -8.8711369672
H       -1.8504056765    0.8661097121   -9.7522052359
O       -2.7808395777    2.5366528735   -9.0263585415
H       -3.6478249966    2.1505766267   -9.0010660917
C       -2.2164716787    0.6117270593   -7.6675199774
H       -1.5521086170   -0.2502268556   -7.6615548689
O       -3.5411799541    0.1988538721   -7.8549814324
H       -3.8296203382   -0.2601431797   -7.0755573534
C       -2.0674640767    1.3519668138   -6.3173159777
H       -2.7701178944    2.1770465351   -6.2959537834
O       -2.3273836845    0.4274104239   -5.3016443386
H       -2.3522761713    0.8786610725   -4.4680869654
48   
Iteration 7 Energy -1329.64094158
H        3.9290306404    6.8556243892   -1.0196948031
C        2.9982019208    6.6425073031   -1.5244990765
H        2.6283628137    7.5502153369   -1.9924457556
H        2.2710541799    6.2894766781   -0.8045606764
O        3.2732388978    5.6586487886   -2.4886149202
C        2.2474480331    5.3482517051   -3.3319364541
H        1.7770526530    6.2435942473   -3.7305182070
O        1.2324858683    4.5876918518   -2.5967109690
C        0.0813390642    4.1000698974   -3.4165346481
H       -0.4188357182    4.9631222647   -3.8416452845
C       -0.8317026547    3.4421174048   -2.3958530921
H       -0.3222898653    2.5772558714   -1.9748091927
H       -1.7378382736    3.1073340319   -2.8775652864
O       -1.2050486565    4.3405914261   -1.3982795076
H       -0.4114787981    4.7020833992   -1.0249426926
C        0.5595288200    3.2142533801   -4.4809070721
H        0.9826736205    2.3025431328   -4.0682231536
C        1.6460774464    3.9057344712   -5.3397260238
H        1.1894036489    4.7199564952   -5.8928545079
O        2.2145431511    2.9724096168   -6.2222467525
H        2.7334826166    3.4387890055   -6.8674292193
C        2.8034338588    4.4587693225   -4.4785038753
H        3.3276891708    3.6254900598   -4.0225865063
O        3.6349265687    5.1876927501   -5.3277676654
H        4.4226937245    5.4279372168   -4.8574174115
O       -0.6369491157    2.8964285307   -5.1810524710
C       -0.6538307587    2.0099692774   -6.2287604665
H        0.1146351334    1.2560682825   -6.1178530033
O       -0.3999793825    2.7673591762   -7.4615950096
C       -0.5525725125    2.0082878748   -8.7404816697
H        0.1785745524    1.2050530039   -8.7127008185
C       -0.0696432212    3.0274916982   -9.7555827915
H       -0.6767048235    3.9198471747   -9.6743426962
H       -0.1419294851    2.6438572062  -10.7647724369
O        1.2818565458    3.3287603396   -9.4854873748
H        1.3374900868    3.3581197956   -8.5347046756
C       -1.8672765559    1.4498607622   -8.8780950399
H       -1.8662012156    0.7806293170   -9.7396007123
O       -2.8161969949    2.4587744858   -9.0593483520
H       -3.6781158622    2.0637791589   -9.0099561887
C       -2.2156075133    0.5843048074   -7.6453767321
H       -1.5384146217   -0.2672367067   -7.6175499868
O       -3.5356943568    0.1453689941   -7.8098823609
H       -3.8152746715   -0.2825033867   -7.0097797631
C       -2.0704664937    1.3678724915   -6.3194186787
H       -2.7884000357    2.1801044349   -6.3140165988
O       -2.3089267753    0.4654240282   -5.2774937726
H       -2.3887593028    0.9419795370   -4.4619736412
48   
Iteration 8 Energy -1329.64163260
H        3.9232469033    6.7788053883   -0.9186189130
C        2.9953543417    6.5793386420   -1.4341548871
H        2.6245555795    7.5004441804   -1.8741074845
H        2.2658390414    6.2011962983   -0.7293922925
O        3.2773708279    5.6277676496   -2.4285134385
C        2.2620202997    5.3506114819   -3.2943533050
H        1.8056671886    6.2613329411   -3.6733042353
O        1.2313841824    4.5779430827   -2.5944042069
C        0.0870308294    4.1239937822   -3.4425848695
H       -0.3985916785    5.0038733920   -3.8500282556
C       -0.8487494240    3.4504509222   -2.4531766890
H       -0.3596509722    2.5657420162   -2.0500343222
H       -1.7552865037    3.1480160995   -2.9543128648
O       -1.2187137506    4.3281265511   -1.4350577243
H       -0.4228707253    4.6649323953   -1.0436753954
C        0.5717348364    3.2650981610   -4.5259063070
H        0.9833841499    2.3377260100   -4.1370383045
C        1.6749889843    3.9716609390   -5.3504688109
H        1.2268059886    4.8078577895   -5.8799353878
O        2.2488457470    3.0619518466   -6.2529909978
H        2.8288829427    3.5223784297   -6.8524943831
C        2.8255495506    4.4897493802   -4.4589421706
H        3.3408442259    3.6395277560   -4.0255888218
O        3.6716039903    5.2368390944   -5.2811400683
H        4.4703440337    5.4314647668   -4.8082148781
O       -0.6194488627    2.9853555581   -5.2495532399
C       -0.6497036993    2.0595273279   -6.2590981383
H        0.1242510560    1.3114003541   -6.1340937265
O       -0.4196436008    2.7794641909   -7.5187505767
C       -0.5738590089    1.9764959632   -8.7703434154
H        0.1644223535    1.1792248712   -8.7215302231
C       -0.1198893641    2.9704458756   -9.8210502516
H       -0.7826000183    3.8261673222   -9.8133526780
H       -0.1277554890    2.5251535942  -10.8080136360
O        1.2024539124    3.3517946135   -9.5270078273
H        1.2655863935    3.4055456248   -8.5769533684
C       -1.8814319775    1.3947757668   -8.8756028338
H       -1.8856833076    0.7022663548   -9.7179974004
O       -2.8499100849    2.3845696352   -9.0721436314
H       -3.7044855680    1.9781727881   -8.9943018831
C       -2.2043477803    0.5653654052   -7.6115142934
H       -1.5143578886   -0.2745867584   -7.5601513495
O       -3.5186297108    0.1012867268   -7.7466752307
H       -3.7832771605   -0.2960193795   -6.9258573345
C       -2.0574713444    1.3942578542   -6.3136030403
H       -2.7939724180    2.1895331577   -6.3229715432
O       -2.2668483503    0.5178087608   -5.2409849991
H       -2.3979030379    1.0169255838   -4.4461091400
48   
Iteration 9 Energy -1329.64207785
H        3.9140742536    6.6870854113   -0.8084557677
C        2.9857630393    6.4997599751   -1.3277994170
H        2.5928047466    7.4373801423   -1.7097351912
H        2.2704221809    6.0644376938   -0.6422828721
O        3.2784604130    5.6159211254   -2.3797843737
C        2.2643857707    5.3693719504   -3.2573239310
H        1.8037386391    6.2919179942   -3.6023239443
O        1.2361212750    4.5644718591   -2.5910177171
C        0.0949671165    4.1404787630   -3.4587861431
H       -0.3904953706    5.0353754359   -3.8328470396
C       -0.8453679183    3.4268335085   -2.5019119047
H       -0.3621013085    2.5228507869   -2.1364894953
H       -1.7524106185    3.1517956680   -3.0187319689
O       -1.2166949881    4.2608005318   -1.4480283863
H       -0.4210567858    4.5811725071   -1.0424681002
C        0.5849509804    3.3284243015   -4.5753470977
H        0.9948651672    2.3856021968   -4.2231490667
C        1.6862984425    4.0726518524   -5.3687342176
H        1.2273414378    4.9271624995   -5.8593568962
O        2.2630495496    3.2124953152   -6.3114363533
H        2.8573009849    3.7235659616   -6.8538712436
C        2.8333187645    4.5589947846   -4.4550384619
H        3.3543903641    3.6951489100   -4.0571833704
O        3.6772689624    5.3433216147   -5.2466614344
H        4.4802066581    5.5147594490   -4.7715390153
O       -0.5984857435    3.0830433481   -5.3179471007
C       -0.6490764519    2.1155753409   -6.2860798148
H        0.1224790306    1.3687557840   -6.1341852250
O       -0.4225257360    2.7739143756   -7.5796119891
C       -0.5752002059    1.9103114910   -8.7903578588
H        0.1635300574    1.1161147624   -8.7021444415
C       -0.1307715613    2.8455098364   -9.8989627598
H       -0.8425366329    3.6558358037   -9.9936457877
H       -0.0756487500    2.3131272153  -10.8414349676
O        1.1542033617    3.3256718468   -9.6170659633
H        1.2133862219    3.4627661187   -8.6769437051
C       -1.8809339767    1.3198839080   -8.8657209064
H       -1.8895586280    0.5911761418   -9.6765062870
O       -2.8546018095    2.2981965951   -9.1024544826
H       -3.7067577508    1.8910919545   -9.0037569250
C       -2.1999735197    0.5521160532   -7.5623167894
H       -1.5057980378   -0.2807760200   -7.4666323712
O       -3.5117944994    0.0749460021   -7.6724925915
H       -3.7736239881   -0.2837847458   -6.8329464181
C       -2.0546824410    1.4438490977   -6.3065653487
H       -2.7992244078    2.2304607885   -6.3456230450
O       -2.2526886829    0.6115257477   -5.1947781541
H       -2.4242315580    1.1406682482   -4.4276229193
48   
Iteration 10 Energy -1329.64232527
H        3.8887713303    6.6109813619   -0.7184611104
C        2.9627446658    6.4323054305   -1.2446961507
H        2.5509299002    7.3807343297   -1.5773324693
H        2.2584101833    5.9486166844   -0.5810426961
O        3.2714397965    5.6088956848   -2.3402541700
C        2.2607532115    5.3864745934   -3.2271607488
H        1.7961360609    6.3179011174   -3.5428612844
O        1.2344322274    4.5551635808   -2.5909664088
C        0.0975276771    4.1552626583   -3.4755862683
H       -0.3904559954    5.0604147598   -3.8208566696
C       -0.8421084979    3.4076942948   -2.5452817099
H       -0.3605330400    2.4897115468   -2.2140049849
H       -1.7482406522    3.1530067713   -3.0740476175
O       -1.2159498536    4.2006228705   -1.4618796146
H       -0.4218739534    4.5118295597   -1.0463633229
C        0.5941732852    3.3831546171   -4.6172593007
H        1.0077902890    2.4309881399   -4.2961518508
C        1.6941897111    4.1583993192   -5.3822844735
H        1.2297676751    5.0291329322   -5.8387719540
O        2.2676402507    3.3317750517   -6.3592922935
H        2.8888691396    3.8499870352   -6.8615731703
C        2.8365534044    4.6191073940   -4.4496654397
H        3.3597130082    3.7455832621   -4.0760997146
O        3.6792346537    5.4302875083   -5.2140801236
H        4.4788442371    5.5920911009   -4.7304342085
O       -0.5734197859    3.1626888105   -5.3891910537
C       -0.6299084327    2.1561741250   -6.3136826105
H        0.1389508154    1.4113593094   -6.1387212686
O       -0.4122748705    2.7647037464   -7.6328824936
C       -0.5753917779    1.8561653458   -8.8088824291
H        0.1606043211    1.0622854196   -8.6993352929
C       -0.1437937927    2.7423436496   -9.9640734775
H       -0.8798778594    3.5208083422  -10.1235359313
H       -0.0646294271    2.1497389029  -10.8688338297
O        1.1209324782    3.2684371223   -9.7004954346
H        1.1635504853    3.4689167875   -8.7700764730
C       -1.8825007688    1.2655436492   -8.8519764831
H       -1.9003466915    0.5093665214   -9.6369083861
O       -2.8580163251    2.2363929620   -9.1120094676
H       -3.7088305441    1.8314321653   -8.9958679092
C       -2.1927010379    0.5481955592   -7.5180711224
H       -1.4985763433   -0.2810840856   -7.3933922067
O       -3.5049381270    0.0682726552   -7.6007851599
H       -3.7577932159   -0.2658414827   -6.7486594091
C       -2.0365846133    1.4865596386   -6.2981082063
H       -2.7824620553    2.2700029569   -6.3614556169
O       -2.2237912256    0.6973054049   -5.1525719736
H       -2.4198735835    1.2518706569   -4.4101758066
48   
Iteration 11 Energy -1329.64259194
H        3.8708392170    6.5478540521   -0.6453385618
C        2.9461521933    6.3770545666   -1.1766382027
H        2.5178429930    7.3325519007   -1.4655173982
H        2.2525108134    5.8527131561   -0.5333325706
O        3.2635311760    5.6086596441   -2.3094287988
C        2.2525152357    5.4059194018   -3.1994588732
H        1.7797338219    6.3436623950   -3.4830830902
O        1.2338864881    4.5467896994   -2.5883552574
C        0.0986744875    4.1659899027   -3.4835145886
H       -0.3978818527    5.0777155055   -3.7981223660
C       -0.8316895835    3.3803780844   -2.5765416096
H       -0.3449768297    2.4526649545   -2.2819962100
H       -1.7380725242    3.1402118669   -3.1123420598
O       -1.2078940587    4.1297165163   -1.4652946106
H       -0.4152821623    4.4382377901   -1.0453427560
C        0.5994648559    3.4342991775   -4.6497318454
H        1.0219084677    2.4770992929   -4.3581129450
C        1.6920105221    4.2420474250   -5.3914802779