18   
Iteration 0 Energy -449.79401200
O        0.8556237138   -1.3818976259    0.3173538155
H        1.6746796629   -1.8471219649    0.4856375088
H        1.1172361800   -0.4682733188    0.2056811804
O       -1.0982625284   -0.8580828910    2.1724631078
H       -0.4029651704   -1.1456966573    1.5813109035
H       -1.0847470506    0.0967976121    2.1121133005
O        1.8638563656    1.2197718722    1.3326640992
H        2.0097975347    1.8822901978    0.6578398910
H        2.6411662827    0.6630381517    1.2943569165
O        0.4358641627    0.8588226435   -1.7984082642
H        1.2948367559    0.5941611975   -1.4701680912
H        0.1355146577    0.1111827990   -2.3145955512
O       -0.8006621036   -2.0904305554   -1.5724738604
H       -0.2202463070   -1.8291579755   -0.8579929211
H       -0.3279502699   -1.8451926104   -2.3674678605
O       -1.4962593612    2.2671514257   -0.3294297749
H       -0.8465067643    1.6935133613   -0.7348841125
H       -2.3244822432    1.7978584481   -0.4265572767
18   
Iteration 1 Energy -449.81769939
O        0.8853960011   -1.3064949153    0.3827105942
H        1.7007308302   -1.8558190281    0.4977714733
H        1.2210020862   -0.3778344389    0.4095685454
O       -1.1537123116   -0.8693240934    2.2379948691
H       -0.4428551088   -1.1590220665    1.6109317058
H       -1.0706587993    0.1118963125    2.1178234314
O        1.8437539802    1.1326112445    1.2961660204
H        1.9880828363    1.8638698649    0.6389078926
H        2.7475341015    0.7209829358    1.2780406395
O        0.4195182294    0.9271762171   -1.7914166751
H        1.3306230679    0.6074269325   -1.5672623838
H        0.0929016130    0.1470783599   -2.3071821443
O       -0.8951532834   -2.1572762517   -1.6671784722
H       -0.3062346406   -1.9292234182   -0.8990280304
H       -0.3025190198   -1.9073701408   -2.4231768046
O       -1.4825176555    2.2968812133   -0.3099077239
H       -0.8400756785    1.7148770058   -0.7942133582
H       -2.3081730731    1.7582042666   -0.4236827544
18   
Iteration 2 Energy -449.82580351
O        0.8492232372   -1.2713304847    0.3613029230
H        1.6681370686   -1.8216705345    0.4679467816
H        1.1931806210   -0.3681896125    0.5977505703
O       -1.1661983915   -0.8676981149    2.2635093724
H       -0.4630227326   -1.1916902160    1.6356288369
H       -1.0768425658    0.1171866371    2.1338586330
O        1.8971397719    1.0181288861    1.2027914847
H        1.9260009548    1.8163466363    0.6051194217
H        2.8692282486    0.8145669745    1.2872250250
O        0.4277182381    0.9377380759   -1.8242674436
H        1.3497211196    0.6100018038   -1.6429700679
H        0.0480462582    0.1704526849   -2.3282246935
O       -0.8948892486   -2.1650032190   -1.6647447313
H       -0.3124644471   -1.9173584095   -0.8919442920
H       -0.2706381892   -1.9880474739   -2.4237682431
O       -1.5004446529    2.3051094372   -0.2815980598
H       -0.8151052855    1.7927714422   -0.7930787636
H       -2.3011524940    1.7273319009   -0.4176706783
18   
Iteration 3 Energy -449.82842543
O        0.8346658435   -1.2014810738    0.3352789597
H        1.5879948035   -1.8211318258    0.4898447171
H        1.1913753775   -0.3424813384    0.7011802739
O       -1.1792712883   -0.8846738542    2.2929805600
H       -0.5087546328   -1.2179267301    1.6430824391
H       -1.0801553047    0.0914483824    2.1506301999
O        1.9926594146    0.8951624357    1.1113592474
H        1.8361958745    1.7102671821    0.5753652925
H        2.9600066428    0.9597397879    1.2992903372
O        0.4139730727    0.9683615346   -1.8499582422
H        1.3208057074    0.5949128923   -1.7233683697
H       -0.0151196190    0.2181730396   -2.3267790514
O       -0.8732151551   -2.1461054921   -1.6508270766
H       -0.3071651618   -1.8458660581   -0.8921435647
H       -0.2157628588   -2.1064609323   -2.3937852728
O       -1.4837159154    2.3007581580   -0.2555983920
H       -0.7948195918    1.8499349160   -0.8065300925
H       -2.2520616507    1.6960135612   -0.4131611733
18   
Iteration 4 Energy -449.83065571
O        0.7854670612   -1.2653278452    0.2970958385
H        1.4878841222   -1.9072241669    0.5324089519
H        1.1923805548   -0.4181498365    0.6245263861
O       -1.1712229094   -0.9085944373    2.2937771381
H       -0.5295818622   -1.2227829761    1.6145566801
H       -1.0931436298    0.0655099722    2.1674965289
O        2.0594924789    0.9523567634    1.1120873098
H        1.8173067023    1.7459802174    0.5961652845
H        3.0055885417    1.0786640510    1.3274648870
O        0.3949802362    0.9792640375   -1.8719480212
H        1.2867941728    0.5818285018   -1.7546497247
H       -0.0724989388    0.2441436033   -2.3252111312
O       -0.8393111761   -2.1052148648   -1.6307228210
H       -0.2842768194   -1.7652086157   -0.8886471965
H       -0.1693744087   -2.1819528142   -2.3502003605
O       -1.4569226710    2.2881388207   -0.2400327956
H       -0.7703635639    1.8742753736   -0.8119050341
H       -2.2155655227    1.6829375343   -0.4053990143
18   
Iteration 5 Energy -449.83322257
O        0.8120226770   -1.2493281315    0.3404630050
H        1.4443033649   -1.9511769688    0.6021837832
H        1.3052392134   -0.4293629936    0.5844036523
O       -1.1622251884   -0.9250369002    2.2859259047
H       -0.5406944402   -1.2209003818    1.5799660085
H       -1.1114798193    0.0546012124    2.1846016328
O        2.0213027765    0.9692405947    1.0983535160
H        1.8184977972    1.8007743829    0.6239353630
H        2.9732807756    1.0731778640    1.3127773333
O        0.3713571893    0.9683981317   -1.8928160056
H        1.2653272881    0.5790113675   -1.7551012541
H       -0.1132627066    0.2332277604   -2.3312991101
O       -0.8368758775   -2.0721600602   -1.6652400982
H       -0.3018574226   -1.7391631330   -0.9056366919
H       -0.1377525658   -2.2113356766   -2.3456533602
O       -1.4336481011    2.2781651882   -0.2279695275
H       -0.7442412106    1.8769035953   -0.8070421812
H       -2.2016683825    1.6836131962   -0.3949816747
18   
Iteration 6 Energy -449.83617506
O        0.8170694336   -1.2607176958    0.3739471607
H        1.3945153916   -1.9905477846    0.6906427326
H        1.3370800489   -0.4458423516    0.5794981247
O       -1.1444050257   -0.9597726259    2.2761439302
H       -0.5354671028   -1.1740683969    1.5277187029
H       -1.1497792277    0.0266556311    2.2166583649
O        2.0280745315    0.9592896850    1.0519184821
H        1.7819880581    1.8242304172    0.6490136777
H        2.9710003678    1.1162924192    1.2946858424
O        0.3148652094    0.9672538028   -1.9330520134
H        1.2043796403    0.5658344832   -1.7856200115
H       -0.1809829235    0.2125269313   -2.3293598153
O       -0.8028198947   -1.9876705266   -1.7048613087
H       -0.2777784208   -1.6840217321   -0.9227480760
H       -0.0799504046   -2.2744946284   -2.3145674826
O       -1.3807667994    2.2677736343   -0.1982692151
H       -0.7117490648    1.8723202712   -0.8092606457
H       -2.1576555149    1.6836054072   -0.3756155298
18   
Iteration 7 Energy -449.83895270
O        0.8407826535   -1.3049304343    0.4690389124
H        1.1332865286   -2.0615701934    1.0344399510
H        1.5000899577   -0.5736993245    0.5906303300
O       -1.0738265832   -1.0786654504    2.2347054461
H       -0.5667548001   -0.9970756726    1.3799221873
H       -1.3152774044   -0.1218413860    2.3609381131
O        2.1283601331    0.9755552241    0.8089699584
H        1.5808659247    1.8107689051    0.7293969235
H        2.9395035502    1.3457809480    1.2572742552
O        0.0300547948    0.9053465414   -2.1498138345
H        0.9129069973    0.4967348935   -1.9492674146
H       -0.5131132271    0.0827051632   -2.2821037044
O       -0.4314946014   -1.5946131080   -1.9259301263
H       -0.0626395742   -1.4375510483   -1.0118882713
H       -0.0296570744   -2.4850456504   -2.1172805016
O       -1.1183754543    2.2002514734   -0.0613587595
H       -0.5725863341    1.8606855490   -0.8246167763
H       -1.9545394728    1.6958209997   -0.2561817459
18   
Iteration 8 Energy -449.84458489
O        0.8373199432   -1.2763675275    0.3945917757
H        1.3132608904   -2.0115204018    0.8485463268
H        1.3893622274   -0.4748785423    0.5873450040
O       -1.1388258697   -1.0126312211    2.2806539483
H       -0.5465762200   -1.0875087948    1.4874140448
H       -1.2717452171   -0.0305290473    2.2975671663
O        2.0741712792    0.9315500260    0.9055355292
H        1.6507020781    1.8067902918    0.7044804821
H        2.9581139310    1.2207965518    1.2487791056
O        0.1452951884    0.9710559352   -2.0600683826
H        1.0378967678    0.5843099405   -1.8779346351
H       -0.3271160127    0.1418159441   -2.3250102456
O       -0.6281810305   -1.7575508105   -1.7783597091
H       -0.1424365397   -1.6350482328   -0.9204580317
H       -0.0329127897   -2.4045743029   -2.2361025686
O       -1.2028480443    2.2195246203   -0.1335368010
H       -0.6447787752    1.8200914095   -0.8528449742
H       -2.0431008460    1.7133250232   -0.2837265230
18   
Iteration 9 Energy -449.85006185
O        0.8499999002   -1.3052382415    0.4212476176
H        1.3380790941   -2.0033389465    0.9168271620
H        1.3726203317   -0.4747071683    0.5718976661
O       -1.1552687751   -1.0183440957    2.2932646747
H       -0.5598305607   -1.0675817162    1.5021142423
H       -1.3218344378   -0.0427777754    2.3144451794
O        2.0887776945    0.9331293637    0.8414391784
H        1.5906291759    1.7823009711    0.7292904957
H        2.9426403336    1.2496950528    1.2285415830
O        0.0685550009    0.9312744109   -2.1361907299
H        0.9903475120    0.6405679693   -1.9271611210
H       -0.3450632456    0.0448574541   -2.2980541444
O       -0.5409573804   -1.6496587067   -1.8042062209
H       -0.0784770434   -1.6196385434   -0.9256934066
H       -0.0628511500   -2.3998942960   -2.2382454878
O       -1.1166554205    2.1890667485   -0.1085158972
H       -0.6362131237    1.7836703997   -0.8794368311
H       -1.9969028741    1.7452615240   -0.2146821495
18   
Iteration 10 Energy -449.77001503
O        0.8519841416   -1.3827892906    0.5484117760
H        1.4295678699   -1.9395415064    1.1117651347
H        1.3086369587   -0.4986978961    0.5646067779
O       -1.2228212563   -1.0164965618    2.3403412177
H       -0.5726123278   -1.0509412601    1.5987427461
H       -1.4867049953   -0.0671159888    2.3127123153
O        2.0571811069    0.9939790182    0.5929246014
H        1.3577888155    1.6533110620    0.7781851957
H        2.8183759859    1.2886014597    1.1366385424
O       -0.2147283332    0.6499502896   -2.3379808818
H        0.7359655257    0.8934551776   -2.2649726875
H       -0.1847023925   -0.2692928656   -1.9458133411
O       -0.1903534625   -1.3079235035   -1.8498458753
H        0.1104115442   -1.5490467017   -0.9320258049
H       -0.2042035484   -2.1696317444   -2.3234442508
O       -0.7536894274    2.0003812217   -0.1032116609
H       -0.7003114179    1.6244212332   -1.0245249183
H       -1.7121983304    1.8659957693    0.0843998393
18   
Iteration 11 Energy -449.84363089
O        0.8417523605   -1.3464458455    0.4904952765
H        1.4081975824   -1.9650783866    0.9992849555
H        1.3175595985   -0.4771288554    0.5708196983
O       -1.1930496032   -1.0077110730    2.3177684182
H       -0.5573466501   -1.0795571707    1.5652385919
H       -1.3924653462   -0.0416437074    2.2951607620
O        2.0620097066    0.9493262433    0.7228721410
H        1.4769293798    1.7356934893    0.7618273446
H        2.8825599818    1.2477102841    1.1727039168
O       -0.0673619079    0.7780730507   -2.2406254886
H        0.9037116873    0.8077110353   -2.0774755106
H       -0.2463731406   -0.1912920936   -2.0991721008
O       -0.4008264745   -1.4512767499   -1.8268238861
H        0.0199657694   -1.5743130251   -0.9346508855
H       -0.1348459807   -2.2719907645   -2.3025297510
O       -0.9394006364    2.1020518426   -0.1023903099
H       -0.6689658166    1.6833072543   -0.9627691765
H       -1.8844563107    1.8211941197   -0.0628374032
18   
Iteration 12 Energy -449.85565424
O        0.8233440112   -1.3402675475    0.4805342361
H        1.3776982057   -1.9770170893    0.9791274492
H        1.3161007105   -0.4812506159    0.5738900557
O       -1.1864283468   -1.0084498156    2.3149245619
H       -0.5522211614   -1.0969537472    1.5623827570
H       -1.3768193655   -0.0405566121    2.2840925052
O        2.0688036159    0.9519214391    0.7346202332
H        1.4805332104    1.7351786074    0.7444908463
H        2.8835177929    1.2591070948    1.1868229429
O       -0.0085116668    0.9196283843   -2.2491603363
H        0.9551118728    0.8322089497   -2.0718099422
H       -0.3132432465   -0.0270147870   -2.1785553617
O       -0.4321813477   -1.5891063522   -1.7772053311
H        0.0078549834   -1.6453496944   -0.8899765531
H       -0.1160697780   -2.3790655396   -2.2665834365
O       -0.9539451287    2.1049820665   -0.1035514842
H       -0.6503792074    1.6894349506   -0.9542654016
H       -1.8955716911    1.8112016543   -0.0828798352
18   
Iteration 13 Energy -449.85698941
O        0.8171088801   -1.3325962863    0.4918124166
H        1.4016062491   -1.9697226193    0.9571795868
H        1.3100504270   -0.4726335366    0.5774712665
O       -1.2009480101   -0.9978756920    2.3265636879
H       -0.5430313119   -1.1184691072    1.5977222283
H       -1.3778860839   -0.0292024257    2.2534207916
O        2.0089796319    0.9350205806    0.7253403920
H        1.4438003127    1.7386105587    0.7418198206
H        2.8378497141    1.2294987353    1.1649053180
O       -0.0333226986    0.9003134495   -2.2637566525
H        0.9356135814    0.8841602190   -2.0841084506
H       -0.2463031571   -0.0716485240   -2.2353485774
O       -0.4438896652   -1.5732289842   -1.7298864921
H        0.0289619416   -1.6834015611   -0.8667193378
H       -0.1132062145   -2.3342346732   -2.2569076228
O       -0.9185130083    2.0936836416   -0.0875869322
H       -0.6126909225    1.7035399163   -0.9508085479
H       -1.8665834343    1.8168239523   -0.0742172843
18   
Iteration 14 Energy -449.86048160
O        0.8114842803   -1.3566964722    0.5362201077
H        1.4333744850   -1.9758336916    0.9751936320
H        1.2925788037   -0.4875459115    0.5958093773
O       -1.2295734021   -0.9876683706    2.3505776354
H       -0.5483658573   -1.1567517615    1.6529898174
H       -1.4001169978   -0.0244968289    2.2171538181
O        1.9562237892    0.9389105216    0.6615860222
H        1.3421385981    1.7041190581    0.7190180687
H        2.7555221471    1.2457829467    1.1454146322
O       -0.0711839413    0.9053859830   -2.2994749485
H        0.9071621633    0.9629060388   -2.1901594013
H       -0.2175647990   -0.0749398865   -2.1911909803
O       -0.4115795541   -1.5500007194   -1.7286433885
H        0.0582061971   -1.6413159849   -0.8606246735
H       -0.1034055540   -2.3377105821   -2.2282499347
O       -0.7977086262    2.0384263941   -0.0777657113
H       -0.5872278128    1.6771930489   -0.9811422465
H       -1.7623664070    1.8388856503   -0.0098166785
18   
Iteration 15 Energy -449.86603381
O        0.8025527210   -1.3778575066    0.5909141264
H        1.4652219710   -1.9930490591    0.9747868871
H        1.2687810561   -0.4977390488    0.6268578788
O       -1.2599824461   -0.9775709725    2.3765869142
H       -0.5560138696   -1.2004047072    1.7168832021
H       -1.4174280460   -0.0254833638    2.1647599744
O        1.8701839286    0.9432649799    0.5755755188
H        1.1760512086    1.6375643930    0.6589154852
H        2.6125579961    1.2811111446    1.1274889666
O       -0.1001808410    0.9094557117   -2.3400469348
H        0.8809445959    1.0144828909   -2.3419118788
H       -0.2112976338   -0.0667167819   -2.1413175563
O       -0.3652547519   -1.5089642101   -1.7107873529
H        0.0852449556   -1.5730004277   -0.8254436781
H       -0.0656639487   -2.3122839971   -2.1939437367
O       -0.6214027707    1.9641463010   -0.0601796702
H       -0.5432481669    1.6322234600   -0.9964344847
H       -1.5934696138    1.8694870886    0.0841949872
18   
Iteration 16 Energy -449.86953189
O        0.7957743372   -1.3911014026    0.6582714954
H        1.4957016520   -2.0185847064    0.9508950290
H        1.2432078575   -0.4963024336    0.6690024495
O       -1.2855945392   -0.9674987392    2.3996986980
H       -0.5643059074   -1.2503909172    1.7814507089
H       -1.4212320726   -0.0341562497    2.0981523001
O        1.7489936104    0.9433181454    0.4838336884
H        0.9386017978    1.5137654767    0.5253137350
H        2.3823004707    1.3419337426    1.1277640138
O       -0.1197758785    0.9196131209   -2.3614378203
H        0.8490426752    1.0228839107   -2.5192514129
H       -0.2222632863   -0.0445101446   -2.0745136646
O       -0.3260303714   -1.4597147555   -1.6881394925
H        0.0904010739   -1.4583654075   -0.7742057033
H        0.0111695348   -2.2631742706   -2.1529255952
O       -0.3890375758    1.8797668030   -0.0407557644
H       -0.4518007797    1.5796709798   -0.9918387461
H       -1.3475528308    1.9015351644    0.1955862195
18   
Iteration 17 Energy -449.85453803
O        0.8005222040   -1.3147621768    0.6181771466
H        1.4442079110   -2.0348705754    0.8355915188
H        1.2701955087   -0.4218503128    0.6679594095
O       -1.2192584562   -0.9892111951    2.3614429039
H       -0.5442720448   -1.2371672264    1.6781842641
H       -1.3370048373   -0.0349553636    2.1038519518
O        1.8100721563    0.8441404585    0.5934889393
H        0.9537716630    1.3340404211    0.3861038672
H        2.3263072950    1.4017854308    1.2243248715
O        0.0052552262    0.9152969840   -2.2220096579
H        0.9560222373    0.7746171597   -2.4371281727
H       -0.3868220547   -0.0044540603   -2.0076450092
O       -0.4049821070   -1.4808228000   -1.6828361502
H       -0.0617333326   -1.3756119597   -0.7269915283
H        0.1382929017   -2.1446225754   -2.1885324268
O       -0.4803769498    2.0115588491   -0.0679817825
H       -0.3942250042    1.5324629770   -0.9473520031
H       -1.4483684670    1.9431188776    0.0982488175
18   
Iteration 18 Energy -449.86983290
O        0.7951286670   -1.3469349932    0.6376738332
H        1.4613229077   -2.0251330658    0.9042186180
H        1.2628701171   -0.4555907034    0.6615373640
O       -1.2538236967   -0.9816965821    2.3828615853
H       -0.5531672137   -1.2413146665    1.7308242429
H       -1.3878504621   -0.0386962106    2.1027442433
O        1.8204276840    0.8756172042    0.5432705171
H        0.9705958646    1.3990981797    0.4541692950
H        2.3768609619    1.3610595139    1.1961588176
O       -0.0768183068    0.9300854266   -2.2952718356
H        0.8915436014    0.9225675766   -2.4798119257
H       -0.3073140306   -0.0294841520   -2.0495995114
O       -0.3531411594   -1.4655087270   -1.6730885497
H        0.0376170311   -1.4295403475   -0.7398666999
H        0.0670609701   -2.2154702298   -2.1664938984
O       -0.4624028479    1.9584075862   -0.0687239151
H       -0.4377249562    1.5706741594   -0.9936086331
H       -1.4235867693    1.9305513148    0.1399054837
18   
Iteration 19 Energy -449.87636020
O        0.7806090697   -1.3552369084    0.6397468337
H        1.4427708681   -2.0316650467    0.9013129974
H        1.2889130619   -0.4847592183    0.6761428063
O       -1.2567728193   -0.9789313790    2.3844029470
H       -0.5450142846   -1.2448117356    1.7470885644
H       -1.3992725856   -0.0419333124    2.0986835783
O        1.8153197730    0.8814910739    0.5338586547
H        0.9884313175    1.4417926920    0.4740932188
H        2.3728597163    1.3354101088    1.2005453744
O       -0.1121295202    0.9176458642   -2.3076448617
H        0.8556609253    0.9653367396   -2.4876061782
H       -0.2557845449   -0.0575751897   -2.0868011540
O       -0.3517850928   -1.4577049823   -1.6395608703
H        0.0782055177   -1.4856894903   -0.7326893645
H        0.0542867276   -2.1997704963   -2.1442486072
O       -0.4640212342    1.9659718794   -0.0889730346
H       -0.4510514101    1.6298614669   -1.0330203336
H       -1.4136308926    1.9192637783    0.1515684950
18   
Iteration 20 Energy -449.88082257
O        0.7863492618   -1.3654476337    0.6389184780
H        1.4547675126   -2.0373955728    0.8873279076
H        1.2912121514   -0.4883825466    0.6622022179
O       -1.2539137033   -0.9780781383    2.3857291409
H       -0.5354063062   -1.2473862157    1.7577795886
H       -1.4076537759   -0.0452345068    2.0964055868
O        1.7351625299    0.8827693305    0.5203938589
H        0.9090546959    1.4431757009    0.4238295463
H        2.2705389540    1.3306146316    1.2131694475
O       -0.1399925055    0.9041981517   -2.3218067059
H        0.8233538040    0.9729139736   -2.5155134858
H       -0.2426252107   -0.0751324361   -2.1029958914
O       -0.3585395506   -1.4509686102   -1.6112672330
H        0.0755265591   -1.4918860571   -0.7085137630
H        0.0826853291   -2.1614959354   -2.1256554749
O       -0.3683182863    1.9747572788   -0.0766408316
H       -0.3795948630    1.6343199619   -1.0221706410
H       -1.3150184376    1.9173616553    0.1857055478
18   
Iteration 21 Energy -449.88328340
O        0.7815548723   -1.3822359346    0.6433019588
H        1.4766040400   -2.0317877522    0.8797116410
H        1.2440650463   -0.4728397629    0.6434235828
O       -1.2499800654   -0.9862821237    2.3923785820
H       -0.5156432589   -1.2376129269    1.7759025940
H       -1.4302841251   -0.0608488388    2.0960384314
O        1.6964193854    0.8559564401    0.5259779412
H        0.8397536753    1.3775647016    0.3999554394
H        2.1723900895    1.3073238979    1.2572064783
O       -0.1924621585    0.9069838328   -2.3180182638
H        0.7577607138    1.0167773695   -2.5540686722
H       -0.2466725593   -0.0776315765   -2.0931406943
O       -0.3290421938   -1.4339442913   -1.5611600281
H        0.1160832011   -1.5274879811   -0.6661346914
H        0.1069549187   -2.1262639059   -2.1018337044
O       -0.2676571925    2.0046619606   -0.1607940946
H       -0.3663769973    1.6672073686   -1.1079483008
H       -1.1658841804    1.9191740263    0.2361041818
18   
Iteration 22 Energy -449.88620793
O        0.7776194207   -1.3779815592    0.6491175632
H        1.4560249517   -2.0583610060    0.8436241447
H        1.2691923518   -0.4709492069    0.6907010268
O       -1.2229929978   -1.0119589070    2.3936933264
H       -0.4871058147   -1.2200287584    1.7638138684
H       -1.4336102416   -0.0899421578    2.1069757162
O        1.6584457721    0.8066604916    0.5525691856
H        0.8468304681    1.3741120799    0.2889847517
H        2.0372936295    1.2422056812    1.3415601302
O       -0.2313853444    0.9176158506   -2.3142515694
H        0.7063502886    0.9963682019   -2.6002067814
H       -0.3141762454   -0.0659858806   -2.0718168532
O       -0.3176636917   -1.4342453462   -1.5379163676
H        0.1320777757   -1.5207051085   -0.6367592176
H        0.1557598839   -2.0974990678   -2.0842177107
O       -0.2272790890    2.1036977311   -0.2076765661
H       -0.2977446261    1.6912937272   -1.1375764070
H       -1.0800536532    1.9344257274    0.2462835636
18   
Iteration 23 Energy -449.88692975
O        0.7768366653   -1.4094422283    0.6681563719
H        1.4999130677   -2.0390075627    0.8697481861
H        1.2030001951   -0.4636695124    0.6504189295
O       -1.2158596867   -1.0232665064    2.4017471254
H       -0.4815328251   -1.2571716263    1.7769630424
H       -1.4269959586   -0.1022191866    2.1086052933
O        1.6650265006    0.8142643432    0.5819882400
H        0.9084066180    1.4370067603    0.2583791816
H        1.9915299610    1.2308678876    1.4016058122
O       -0.2264224227    0.9075261446   -2.3083694868
H        0.6951101248    0.9846240134   -2.6388502563
H       -0.3117791650   -0.0832278898   -2.0961839964
O       -0.3348413687   -1.4286129946   -1.5478881488
H        0.0899613346   -1.4948820585   -0.6298831864
H        0.1685099749   -2.0681457862   -2.0971522741
O       -0.2145495579    2.1129262670   -0.2210078515
H       -0.3044400843    1.6668016272   -1.1387371124
H       -1.0542838984    1.9343503927    0.2473575187
18   
Iteration 24 Energy -449.88829588
O        0.7552406165   -1.3715486232    0.6619327019
H        1.4451159191   -2.0335072040    0.8832408948
H        1.2351071481   -0.4510303816    0.6763673195
O       -1.2200428383   -1.0509485659    2.4291628992
H       -0.4977274831   -1.2930515198    1.7904489541
H       -1.4443413909   -0.1354262294    2.1257699251
O        1.6992912505    0.8524642335    0.5864549809
H        0.9106644665    1.4404641138    0.2608915846
H        1.9521273478    1.2325620012    1.4531667276
O       -0.2677720667    0.9143867283   -2.3432593033
H        0.6281516563    0.9675303655   -2.7431992801
H       -0.3351243892   -0.0643500483   -2.0744271569
O       -0.2859708677   -1.4087940712   -1.5710415860
H        0.1054020571   -1.4727218487   -0.6372910174
H        0.1724995397   -2.1119835167   -2.0809708281
O       -0.1494156396    2.1068310420   -0.2309995318
H       -0.2937063972    1.6735279597   -1.1517335897
H       -0.9819089458    1.9243155384    0.2523788586
18   
Iteration 25 Energy -449.88751679
O        0.7464726363   -1.3204579815    0.6539476992
H        1.4647474375   -1.9676935782    0.8273344432
H        1.2018619136   -0.3862543605    0.7041172754
O       -1.2286122092   -1.0712810277    2.4639499646
H       -0.4930907211   -1.3070403241    1.8396857489
H       -1.4577243722   -0.1700531860    2.1270857151
O        1.6573109518    0.7993301322    0.6475762970
H        0.9167884857    1.4508836685    0.3296957260
H        1.9370648610    1.1419241422    1.5264122466
O       -0.3084956885    0.8879512479   -2.3546082700
H        0.5395166032    1.0100174076   -2.8377046726
H       -0.2816301084   -0.0847008479   -2.0542451604
O       -0.2857873593   -1.4149855260   -1.5621935388
H        0.1261514506   -1.4971553005   -0.6396216590
H        0.1706278225   -2.0942594347   -2.1034932765
O       -0.0959288551    2.1309508790   -0.2912148610
H       -0.2619768546    1.6781809518   -1.2008081432
H       -0.9197082309    1.9333600991    0.2109817022
18   
Iteration 26 Energy -449.88928349
O        0.7316157035   -1.3542036188    0.6582195863
H        1.4406339057   -2.0067782954    0.8414872179
H        1.1942464307   -0.4230906742    0.7082359635
O       -1.2231128751   -1.0854066740    2.4706320491
H       -0.4991032877   -1.3010595632    1.8291147756
H       -1.4686636929   -0.1861495125    2.1427671018
O        1.7106414417    0.8450667045    0.6490644751
H        0.9585388243    1.4621754362    0.2964278173
H        1.9188937784    1.1787048851    1.5487413927
O       -0.3292162064    0.8865138696   -2.3371281146
H        0.5111102627    1.0331827361   -2.8274272079
H       -0.2978617484   -0.0982874119   -2.0705143144
O       -0.2839975408   -1.4172240986   -1.5539202527
H        0.1487498650   -1.4737896142   -0.6383987441
H        0.1636288033   -2.1042823660   -2.0917254171
O       -0.1008548286    2.1398635734   -0.2950637049
H       -0.2056342417    1.6928032445   -1.2164816899
H       -0.9420337476    1.9306787669    0.1728712400
18   
Iteration 27 Energy -449.88986517
O        0.7445053458   -1.3495690995    0.6660242405
H        1.4366662315   -2.0157971933    0.8587690502
H        1.2366048340   -0.4322961778    0.6826002537
O       -1.2072038019   -1.0951620197    2.4649120071
H       -0.4927036676   -1.2991751990    1.8073339293
H       -1.4770397730   -0.1933398173    2.1586861730
O        1.6886599178    0.8483025808    0.6661664548
H        0.9547791802    1.4624801561    0.2640512772
H        1.8731571607    1.2141682485    1.5552399469
O       -0.2957502961    0.8978292295   -2.3332153432
H        0.5413769215    0.9733508236   -2.8404439684
H       -0.3443847348   -0.0941939689   -2.0842767737
O       -0.2926542866   -1.4015624453   -1.5675492233
H        0.1207635306   -1.4515194754   -0.6396244327
H        0.1909822081   -2.0764506064   -2.0914386102
O       -0.0846356729    2.1230517341   -0.2878474734
H       -0.2435241008    1.6509933552   -1.1880751271
H       -0.9220147143    1.9576072660    0.1955886205
18   
Iteration 28 Energy -449.89079226
O        0.7441118446   -1.3409815444    0.6515364318
H        1.4511352789   -1.9943332586    0.8391974847
H        1.2050666920   -0.4062164135    0.7057287852
O       -1.2076300238   -1.1110168729    2.4829622880
H       -0.4905595079   -1.3091557033    1.8249816458
H       -1.5004133937   -0.2176243974    2.1726732223
O        1.6970908065    0.8360162446    0.6852214822
H        0.9685487390    1.4593496519    0.2835452317
H        1.8550039423    1.1879167592    1.5859201635
O       -0.3290720501    0.8877246797   -2.3649079562
H        0.4811095916    0.9788563563   -2.9112562245
H       -0.3263433564   -0.0978412237   -2.0850619051
O       -0.2862762336   -1.4089786689   -1.5620032473
H        0.1185013285   -1.4528435671   -0.6287172558
H        0.1992806695   -2.0823390093   -2.0852158379
O       -0.0520051033    2.1394001898   -0.2953852705
H       -0.2123038194    1.6772725955   -1.2043574866
H       -0.8876617441    1.9735125105    0.1920371006
18   
Iteration 29 Energy -449.89084133
O        0.7316844782   -1.3186427232    0.6520427110
H        1.4331850885   -1.9869213406    0.8090249949
H        1.1982487021   -0.3871511130    0.7473227665
O       -1.1934418920   -1.1428562671    2.5048768693
H       -0.4857717360   -1.3117212990    1.8300953754
H       -1.5205856308   -0.2627281987    2.1949337280
O        1.6847793400    0.8403584982    0.7232850546
H        0.9860906502    1.4849659151    0.3033408752
H        1.8074659635    1.1703434518    1.6407722016
O       -0.3538072283    0.8797639482   -2.3382446385
H        0.4132668512    0.9836696487   -2.9444999220