3    
Climbing Image - Chain 34 Image 4 Energy   -93.2928355046 (+62.527 kcal/mol) RMSGrad 0.031 eV/Ang
C       -0.0596233087   -0.6847046582    0.0000001804
N       -0.6417978684    0.3777054764   -0.0000002473
H        0.7014211782    0.3069991837    0.0000000673
