30   
Iteration 0 Energy -1011.84502801
H       -0.5220000000   -2.8130000000   -2.8020000000
C       -0.4610000000   -2.9670000000   -1.7520000000
C       -0.3920000000   -3.1420000000   -0.5590000000
C       -0.3130000000   -3.3390000000    0.7870000000
N       -0.2460000000   -3.5080000000    1.9420000000
H        2.9550000000    0.7240000000   -2.6980000000
C        2.5350000000    1.4220000000   -2.0160000000
C        2.0570000000    2.2150000000   -1.2410000000
C        1.5180000000    3.1100000000   -0.3660000000
N        1.0560000000    3.8780000000    0.3840000000
H       -0.5780000000    1.4180000000    3.7160000000
C       -1.2870000000    1.3900000000    2.9240000000
C       -2.0920000000    1.3580000000    2.0240000000
C       -3.0000000000    1.3220000000    1.0100000000
N       -3.7790000000    1.2910000000    0.1390000000
H       -2.6160000000   -1.7620000000    2.5200000000
C       -2.7220000000   -1.6770000000    1.4660000000
C       -2.8430000000   -1.5800000000    0.2680000000
C       -2.9790000000   -1.4710000000   -1.0830000000
N       -3.0960000000   -1.3780000000   -2.2420000000
H        2.3760000000   -2.1380000000    2.4400000000
C        2.3780000000   -2.1520000000    1.3780000000
C        2.3790000000   -2.1680000000    0.1700000000
C        2.3800000000   -2.1860000000   -1.1920000000
N        2.3820000000   -2.2010000000   -2.3610000000
H       -0.3920000000   -0.0050000000   -0.7010000000
C        0.2610000000    0.2270000000    0.1050000000
C        1.0030000000    0.4910000000    1.0210000000
C        1.8390000000    0.7880000000    2.0550000000
N        2.5560000000    1.0440000000    2.9410000000
30   
Iteration 1 Energy -1011.85932329
H       -0.5323381370   -2.8497308675   -2.7739486204
C       -0.4921791531   -3.0528593205   -1.7299319948
C       -0.4377243395   -3.2570967687   -0.5402296660
C       -0.3661405464   -3.4514302922    0.8035777823
N       -0.3005943133   -3.5975529136    1.9614892862
H        2.9576677885    0.7220843721   -2.7130104196
C        2.5614995321    1.4650971444   -2.0631613562
C        2.0948551124    2.2797471360   -1.3027988207
C        1.5543295649    3.1665226339   -0.4202841989
N        1.0846033547    3.9119846695    0.3488148059
H       -0.6087781072    1.4357545436    3.7424101773
C       -1.3436406085    1.4391639428    2.9736188915
C       -2.1508309201    1.4427101548    2.0754865035
C       -3.0338039970    1.4376029086    1.0404288707
N       -3.7854472841    1.4183486484    0.1447170164
H       -2.6357242379   -1.8174894069    2.5078973415
C       -2.7906927326   -1.7313189069    1.4602909635
C       -2.9379503100   -1.6163663918    0.2674970716
C       -3.0629248497   -1.4684217134   -1.0789719706
N       -3.1417050081   -1.3456035592   -2.2393909289
H        2.4445554850   -2.2035873769    2.4196122888
C        2.5273782376   -2.2155663484    1.3593525955
C        2.5677261809   -2.2024375125    0.1532109684
C        2.5527385022   -2.1606741591   -1.2050601662
N        2.5161733079   -2.1155489324   -2.3735381380
H       -0.4133119739    0.0042911403   -0.6989825413
C        0.2298707323    0.2336046104    0.1146794420
C        0.9675914910    0.4948579358    1.0318940307
C        1.8058111886    0.7888778742    2.0611447463
N        2.5259860405    1.0360367553    2.9501860299
30   
Iteration 2 Energy -1011.86922635
H       -0.5154113105   -2.9381382216   -2.7486829478
C       -0.4498185766   -3.1763607658   -1.7137040375
C       -0.3836839674   -3.4061788870   -0.5285993955
C       -0.3135143202   -3.5970494748    0.8156404300
N       -0.2539395064   -3.7184395135    1.9774449979
H        2.9534337205    0.7186054423   -2.7477750534
C        2.5976415514    1.5196582501   -2.1431486859
C        2.1565273568    2.3701658778   -1.4064076790
C        1.6300612739    3.2652482125   -0.5248536312
N        1.1641490417    3.9994530545    0.2577901305
H       -0.6963554480    1.5004026252    3.8287753220
C       -1.4470870740    1.5364270010    3.0761144773
C       -2.2435844595    1.5763086619    2.1689355179
C       -3.0848238152    1.5941152438    1.1000241055
N       -3.7891611450    1.5827725046    0.1659715729
H       -2.7278567855   -1.9026607044    2.4930613011
C       -2.9375093790   -1.7724985330    1.4592186728
C       -3.1106567582   -1.6154849172    0.2739692624
C       -3.2061008716   -1.4286347847   -1.0696913243
N       -3.2243017452   -1.2775827432   -2.2297585717
H        2.5746946893   -2.3610742991    2.4015484830
C        2.6874207597   -2.3388899447    1.3437584033
C        2.7451980976   -2.2622908849    0.1392686359
C        2.7187971772   -2.1183948708   -1.2120870147
N        2.6547022571   -1.9654829089   -2.3708992485
H       -0.4513171217   -0.0127992437   -0.7125851605
C        0.1917076135    0.2016670819    0.1059984752
C        0.9232928270    0.4587358993    1.0310343973
C        1.7455874813    0.7564105594    2.0716188049
N        2.4489084369    1.0029902726    2.9750197540
30   
Iteration 3 Energy -1011.87408479
H       -0.5095283549   -3.0354166069   -2.7399371155
C       -0.4381925968   -3.2640979487   -1.7033098881
C       -0.3703516867   -3.4946059994   -0.5185572589
C       -0.3002767943   -3.6846183526    0.8270482925
N       -0.2413518988   -3.8041158777    1.9892333054
H        2.9413610142    0.7057730398   -2.7899652365
C        2.6169829766    1.5384843771   -2.2099360525
C        2.2035179242    2.4177605142   -1.4906685660
C        1.7053149883    3.3416477959   -0.6229343105
N        1.2616335553    4.0983478595    0.1510402165
H       -0.7938901170    1.5853360980    3.9367012361
C       -1.5278978810    1.6344399787    3.1683832850
C       -2.3036673855    1.6921419016    2.2437794254
C       -3.1195139960    1.7218492262    1.1547249595
N       -3.7956748752    1.7202007641    0.2001021163
H       -2.8376379767   -2.0050517981    2.4943199848
C       -3.0371315743   -1.8300873196    1.4648980000
C       -3.2031173731   -1.6307627052    0.2845577176
C       -3.2753122436   -1.4093702471   -1.0566049998
N       -3.2672372585   -1.2300956465   -2.2127081692
H        2.7254231931   -2.5473064192    2.3785767352
C        2.8256653972   -2.4495836653    1.3238316981
C        2.8840390903   -2.2901067783    0.1273097900
C        2.8631938623   -2.0415115010   -1.2097698098
N        2.8054235059   -1.7847998789   -2.3501022257
H       -0.4951357058   -0.0323917161   -0.7395798671
C        0.1477204674    0.1755292062    0.0815320666
C        0.8697814393    0.4266716406    1.0169224135
C        1.6711024036    0.7138246768    2.0782054834
N        2.3517579093    0.9529153756    2.9999067695
30   
Iteration 4 Energy -1011.87804017
H       -0.5096454713   -3.1878999694   -2.7384694565
C       -0.4277876053   -3.3816623035   -1.6955863180
C       -0.3523501936   -3.5959683169   -0.5084963644
C       -0.2761684620   -3.7839516818    0.8377151238
N       -0.2131984785   -3.9137330282    1.9984312172
H        2.9213911104    0.6862340598   -2.8540143529
C        2.6328096136    1.5511447005   -2.3006553553
C        2.2604964149    2.4661721885   -1.6034594138
C        1.8139502628    3.4429497961   -0.7663874531
N        1.4174169409    4.2544164514   -0.0228809526
H       -0.9400462134    1.7292839624    4.1056786864
C       -1.6287916384    1.7803428883    3.2968912605
C       -2.3669076741    1.8431149043    2.3423935744
C       -3.1550935530    1.8788397981    1.2326460188
N       -3.8090865405    1.8878946515    0.2627926937
H       -3.0242512946   -2.1507221354    2.5042208745
C       -3.1716040091   -1.9104410255    1.4790625189
C       -3.3014385058   -1.6501358056    0.3063093578
C       -3.3394555596   -1.3775388972   -1.0272316792
N       -3.3096392417   -1.1566888061   -2.1756738658
H        2.9433464278   -2.8402665106    2.3222572395
C        3.0087275779   -2.6063554469    1.2865537577
C        3.0602584178   -2.3128504790    0.1155097799
C        3.0613872214   -1.9130664329   -1.1850698862
N        3.0381331265   -1.5227673696   -2.2874701612
H       -0.5579565436   -0.0530890055   -0.7958188075
C        0.0742735808    0.1430915273    0.0366621315
C        0.7752456755    0.3787922921    0.9921103128
C        1.5429855204    0.6422227513    2.0848481788
N        2.1899991196    0.8636372345    3.0341313754
30   
Iteration 5 Energy -1011.87944419
H       -0.5129328057   -3.2862484122   -2.7430101241
C       -0.4250239597   -3.4498258415   -1.6956453408
C       -0.3410655607   -3.6434875098   -0.5057762702
C       -0.2554184403   -3.8300667186    0.8399721922
N       -0.1843834858   -3.9720279118    1.9987254688
H        2.9178937203    0.6992475708   -2.8943688003
C        2.6362664845    1.5795554658   -2.3604665590
C        2.2869406694    2.5116334895   -1.6742553392
C        1.8781324041    3.5229594556   -0.8605199790
N        1.5191026242    4.3746686174   -0.1435353315
H       -1.0306610003    1.8370311661    4.2181381616
C       -1.6807985336    1.8771289001    3.3776332665
C       -2.3910781545    1.9265992870    2.4015743837
C       -3.1649004501    1.9561733912    1.2816537330
N       -3.8149137087    1.9663961907    0.3092260955
H       -3.1651155693   -2.2370302781    2.5182235359
C       -3.2574509760   -1.9629042674    1.4952007695
C       -3.3425303104   -1.6659824880    0.3272248479
C       -3.3508720319   -1.3546804959   -0.9980544196
N       -3.3080776211   -1.1017620817   -2.1394640285
H        3.0728454040   -3.0319135706    2.2754292764
C        3.1170994205   -2.7063012669    1.2638378511
C        3.1615394037   -2.3317362441    0.1161061056
C        3.1823377658   -1.8598957538   -1.1594911933
N        3.1897006860   -1.4213340729   -2.2430066560
H       -0.6013515224   -0.0552525761   -0.8466203768
C        0.0148521908    0.1268504774    0.0011228968
C        0.6966942382    0.3445752126    0.9746516684
C        1.4416736698    0.5866839577    2.0881497856
N        2.0684954667    0.7919463073    3.0543444536
30   
Iteration 6 Energy -1011.88048607
H       -0.5266523126   -3.3770767087   -2.7513395944
C       -0.4322241472   -3.5110598606   -1.7004936334
C       -0.3337863930   -3.6778188705   -0.5077765698
C       -0.2292881541   -3.8596929993    0.8371277363
N       -0.1406993054   -4.0120284158    1.9933053722
H        2.9267425612    0.7330486604   -2.9241463956
C        2.6354025744    1.6239227946   -2.4137184400
C        2.3033794011    2.5715278291   -1.7403479103
C        1.9318089664    3.6193099378   -0.9560723175
N        1.6123463198    4.5123282609   -0.2714593669
H       -1.1082929309    1.9593594051    4.3270067895
C       -1.7194813854    1.9782668910    3.4572269777
C       -2.4013140422    1.9987475630    2.4601407820
C       -3.1611448345    2.0066113672    1.3304663639
N       -3.8100756190    2.0047204832    0.3572920036
H       -3.3254781967   -2.3213264451    2.5372827667
C       -3.3481603092   -2.0194696986    1.5182522605
C       -3.3673312430   -1.6856595897    0.3575076151
C       -3.3286448947   -1.3297239053   -0.9555238907
N       -3.2592389309   -1.0375921533   -2.0862895498
H        3.1790967564   -3.2129228924    2.2281139158
C        3.2144407331   -2.8071733071    1.2457092111
C        3.2558042918   -2.3609451648    0.1239433769
C        3.2985100970   -1.8384823477   -1.1309697279
N        3.3339327568   -1.3769401252   -2.2040371723
H       -0.6465556962   -0.0434823383   -0.9140854640
C       -0.0518107464    0.1173730945   -0.0466364597
C        0.6051361805    0.3080905295    0.9494844820
C        1.3230953986    0.5225167626    2.0862168963
N        1.9274831016    0.7065712572    3.0708200323
30   
Iteration 7 Energy -1011.88139406
H       -0.5549752912   -3.4552477485   -2.7611207217
C       -0.4499347645   -3.5673001105   -1.7088095262
C       -0.3300083715   -3.7065694557   -0.5146018237
C       -0.1958859920   -3.8781558896    0.8289242533
N       -0.0784096131   -4.0329183311    1.9821880795
H        2.9419324067    0.7595804418   -2.9247521695
C        2.6374782614    1.6633687842   -2.4462986292
C        2.3195803855    2.6352001784   -1.8009065335
C        1.9809690747    3.7273162214   -1.0627766752
N        1.6979517812    4.6647431147   -0.4228161993
H       -1.1689374243    2.0954992667    4.4290510710
C       -1.7474096656    2.0832706847    3.5371357486
C       -2.4023393537    2.0620498397    2.5221678425
C       -3.1455307819    2.0322214151    1.3819560788
N       -3.7890091209    2.0016351265    0.4056272056
H       -3.5072748965   -2.4072152121    2.5562731782
C       -3.4516559559   -2.0802431431    1.5463779236
C       -3.3856356079   -1.7083489838    0.3991580179
C       -3.2731873311   -1.3029717764   -0.8947778564
N       -3.1485328620   -0.9652230325   -2.0080834697
H        3.2604034071   -3.3830943592    2.1761600385
C        3.3039520627   -2.9134587910    1.2227167795
C        3.3492090815   -2.3991062612    0.1304883044
C        3.4089848128   -1.8249294864   -1.1013503848
N        3.4601768456   -1.3341854890   -2.1610796656
H       -0.6954963514   -0.0182128808   -0.9976557100
C       -0.1253917434    0.1148940466   -0.1086782317
C        0.5001076358    0.2700918763    0.9136564456
C        1.1845657650    0.4504507468    2.0766068351
N        1.7613035706    0.6078592236    3.0822199069
30   
Iteration 8 Energy -1011.88249171
H       -0.6178584143   -3.5407604979   -2.7736233111
C       -0.4881069407   -3.6340041005   -1.7222956407
C       -0.3280695367   -3.7390194318   -0.5293427837
C       -0.1386119154   -3.8893964391    0.8100051530
N        0.0334764664   -4.0351389753    1.9575974607
H        2.9672752169    0.7868256224   -2.8778709304
C        2.6496134817    1.7152843776   -2.4587694911
C        2.3470901997    2.7313435658   -1.8769674278
C        2.0432793987    3.8872668003   -1.2247574133
N        1.8007550517    4.8840989644   -0.6626057031
H       -1.2259350570    2.2946354082    4.5509287870
C       -1.7704616769    2.2263206861    3.6403782162
C       -2.3923927808    2.1332553503    2.6087950914
C       -3.1084941792    2.0297229559    1.4558160526
N       -3.7353676252    1.9365429279    0.4726661701
H       -3.7821628895   -2.5203271749    2.5685330141
C       -3.6108035896   -2.1621562923    1.5824975295
C       -3.4075413798   -1.7416795880    0.4688175671
C       -3.1583703209   -1.2707194891   -0.7825491607
N       -2.9153805590   -0.8698128049   -1.8547394970
H        3.3357707772   -3.5959095266    2.1001326161
C        3.4094815484   -3.0622522608    1.1826012395
C        3.4692484028   -2.4653032089    0.1338123210
C        3.5443501968   -1.8207917778   -1.0622812298
N        3.6029799540   -1.2814900068   -2.0981445548
H       -0.7595381785    0.0387030670   -1.1252323650
C       -0.2268838753    0.1264435387   -0.2068977447
C        0.3448059029    0.2226963197    0.8536955930
C        0.9723199657    0.3467296768    2.0550783425
N        1.5025322866    0.4598923828    3.0917222645
30   
Iteration 9 Energy -1011.88345596
H       -0.6632678712   -3.5327480177   -2.7770396893
C       -0.5131905887   -3.6343227930   -1.7291629694
C       -0.3289572030   -3.7371518393   -0.5394851277
C       -0.1069120555   -3.8758326728    0.7961324067
N        0.0969672737   -4.0061752732    1.9404097467
H        2.9824981975    0.7789441662   -2.8107982570
C        2.6666609297    1.7225181992   -2.4243428867
C        2.3612909978    2.7615950276   -1.8861334340
C        2.0499187638    3.9386383703   -1.2761745387
N        1.8001257265    4.9514261768   -0.7465664229
H       -1.2026942479    2.3536915293    4.5584970978
C       -1.7548492735    2.2567999501    3.6550915509
C       -2.3768937863    2.1298835574    2.6272290448
C       -3.0839946225    1.9822010548    1.4735563743
N       -3.6978392459    1.8461075174    0.4871806923
H       -3.8734382283   -2.5435777043    2.5756744843
C       -3.6706780607   -2.1818546072    1.5968639144
C       -3.4223127916   -1.7565660589    0.4941438189
C       -3.1145207901   -1.2780302967   -0.7408764068
N       -2.8096775593   -0.8681776079   -1.7932988147
H        3.3065602247   -3.6220477914    2.0909606695
C        3.4080716987   -3.0985932572    1.1701584710
C        3.4833496233   -2.4964635283    0.1252916225
C        3.5550026607   -1.8385916528   -1.0638157239
N        3.6013625959   -1.2812940725   -2.0908841920
H       -0.7450944366    0.0944280178   -1.1755320436
C       -0.2294397668    0.1620893063   -0.2456765930
C        0.3127825427    0.2293622270    0.8324197518
C        0.9099980426    0.3231865420    2.0511216696
N        1.4161711613    0.4115556002    3.1020559606
30   
Iteration 10 Energy -1011.88517240
H       -0.8060944807   -3.3987206524   -2.7709936343
C       -0.5860019585   -3.5542357309   -1.7421285557
C       -0.3326026110   -3.6870154501   -0.5681889010
C       -0.0223924521   -3.8018725965    0.7518936244
N        0.2658939703   -3.8801555415    1.8828233284
H        3.0204122003    0.7169753646   -2.5502579847
C        2.7241808139    1.6994759082   -2.2482148262
C        2.3886212227    2.7869776371   -1.8387553620
C        2.0074748378    3.9899869528   -1.3270331538
N        1.6819047954    5.0130179824   -0.8620714791
H       -1.0338058398    2.3971076088    4.4485033181
C       -1.6515755759    2.2308995964    3.5991151472
C       -2.3114512945    2.0282886827    2.6077188171
C       -3.0120955773    1.7626408629    1.4714890782
N       -3.5906775109    1.5060119335    0.4876411155
H       -3.9803674843   -2.5286214363    2.6087424446
C       -3.7597231318   -2.1843109135    1.6274007244
C       -3.4650828795   -1.7897484417    0.5244593926
C       -3.0578737129   -1.3496301610   -0.6958987440
N       -2.6357018973   -0.9751243236   -1.7190116748
H        3.0809778408   -3.4982219625    2.1312290567
C        3.2652374404   -3.0864248090    1.1676342142
C        3.3936276188   -2.5558614373    0.0897240647
C        3.4449059512   -1.9235486528   -1.1135318963
N        3.4423929401   -1.3503949989   -2.1327467569
H       -0.5864056411    0.2888723463   -1.2570593160
C       -0.1009522736    0.3199559746   -0.3089094823
C        0.3672213396    0.3196242903    0.8053010650
C        0.8842309971    0.3365175811    2.0619365232
N        1.3227222351    0.3585344418    3.1461900631
30   
Iteration 11 Energy -1011.88569661
H       -0.8152725440   -3.4373930521   -2.7648970157
C       -0.5856576365   -3.5792045029   -1.7363146871
C       -0.3251532980   -3.7094547863   -0.5637611415
C       -0.0116973129   -3.8333235506    0.7544822299
N        0.2786573315   -3.9276423870    1.8836316949
H        3.0183094528    0.7323831520   -2.5745298926
C        2.7247391440    1.7165585808   -2.2733624783
C        2.3988707067    2.8071843791   -1.8642432369
C        2.0344148242    4.0211359545   -1.3674443689
N        1.7237481205    5.0579756457   -0.9234468606
H       -1.0734178446    2.4364942272    4.4950955962
C       -1.6700643150    2.2703196973    3.6309418832
C       -2.3195302879    2.0676015870    2.6326525620
C       -3.0218663028    1.8078240491    1.4963309434
N       -3.6098963763    1.5629954320    0.5153113616
H       -4.0504331278   -2.5629711547    2.5915200711
C       -3.7970555534   -2.2063123276    1.6224999953
C       -3.4814809872   -1.7973686137    0.5307078518
C       -3.0615129462   -1.3442315299   -0.6814237633
N       -2.6435184259   -0.9629099890   -1.7045168869
H        3.1420334830   -3.5826375012    2.0993530521
C        3.3078358905   -3.1198805814    1.1557385535
C        3.4306316071   -2.5569482953    0.0936313058
C        3.4990982556   -1.8975566932   -1.0937356485
N        3.5224545464   -1.3075897431   -2.1026984792
H       -0.6087846954    0.2733772345   -1.2651971216
C       -0.1277288047    0.3039233008   -0.3149974830
C        0.3412937168    0.3032605574    0.7993828263
C        0.8538747443    0.3176268081    2.0593288669
N        1.2841085204    0.3377641681    3.1469604897
30   
Iteration 12 Energy -1011.88629371
H       -0.8854347231   -3.4513441037   -2.7421400248
C       -0.6126529509   -3.5900982187   -1.7239015998
C       -0.3120833732   -3.7325697014   -0.5625084414
C        0.0412844015   -3.8746816433    0.7433947300
N        0.3658760508   -3.9897977776    1.8612711139
H        3.0378339151    0.7496195429   -2.5306099254
C        2.7447027931    1.7435663902   -2.2589829929
C        2.4223850398    2.8498970311   -1.8911381171
C        2.0639554231    4.0879758474   -1.4543052372
N        1.7554793396    5.1494767137   -1.0712995493
H       -1.0871847803    2.5122490290    4.5337631596
C       -1.6668202988    2.3254574589    3.6624092443
C       -2.3119071174    2.1002252269    2.6660960939
C       -3.0196565497    1.8176813301    1.5387449878
N       -3.6187832930    1.5596479315    0.5680211492
H       -4.2072256325   -2.6121408888    2.5613733616
C       -3.8901863199   -2.2426341078    1.6162278974
C       -3.5252325397   -1.8213938250    0.5447806724
C       -3.0593464050   -1.3632391350   -0.6493551005
N       -2.6213647910   -0.9870558114   -1.6664363095
H        3.1685401936   -3.6852032859    2.0529534151
C        3.3271352975   -3.1676495091    1.1371711998
C        3.4566751973   -2.5731761538    0.0932876065
C        3.5529689738   -1.8783136134   -1.0710335066
N        3.6098556207   -1.2600855777   -2.0611700060
H       -0.5944302980    0.3007057015   -1.2906263945
C       -0.1274997969    0.3237936270   -0.3336133384
C        0.3266749335    0.3066553774    0.7870285879
C        0.8120978982    0.2972513978    2.0590029863
N        1.2113436701    0.2961808233    3.1585945833
30   
Iteration 13 Energy -1011.88689323
H       -0.9906963525   -3.4348091260   -2.6953251494
C       -0.6560954114   -3.5900112041   -1.6982446192
C       -0.2969483186   -3.7675955112   -0.5585387680
C        0.1146970781   -3.9502718975    0.7247190851
N        0.4870419836   -4.1026697493    1.8231095166
H        3.0848076926    0.7785506334   -2.4562770383
C        2.7808659011    1.7806722456   -2.2282202525
C        2.4533880929    2.9038549287   -1.9207676323
C        2.0916973815    4.1670059901   -1.5665517124
N        1.7787965059    5.2528738269   -1.2636467328
H       -1.0828112554    2.5952862340    4.5605354382
C       -1.6531125314    2.3826149605    3.6889670546
C       -2.3019573447    2.1297877384    2.7018019873
C       -3.0230834274    1.8188493110    1.5904528641
N       -3.6396756725    1.5411053927    0.6362569244
H       -4.4044682394   -2.6606344610    2.5132322500
C       -4.0188273876   -2.2811190887    1.5981145716
C       -3.5988681198   -1.8522151465    0.5501359157
C       -3.0838740825   -1.4001718042   -0.6261023141
N       -2.6218342341   -1.0400151159   -1.6383688417
H        3.1819195310   -3.7879214860    1.9991380581
C        3.3406964104   -3.2150586887    1.1172730633
C        3.4793036499   -2.5884868934    0.0936082851
C        3.6045228199   -1.8524991270   -1.0418378944
N        3.6948626167   -1.1993321359   -2.0066214395
H       -0.5590041822    0.3346805343   -1.3036351126
C       -0.1057381431    0.3527771988   -0.3406146616
C        0.3382658343    0.3217654573    0.7836718664
C        0.7974735308    0.2889538542    2.0653239106
N        1.1656555470    0.2650332181    3.1754116593
30   
Iteration 14 Energy -1011.88751208
H       -1.1028388464   -3.4030002018   -2.6321579874
C       -0.7081467224   -3.5947587382   -1.6639171134
C       -0.2880295326   -3.8192330029   -0.5536735100
C        0.1870064998   -4.0547137374    0.6984387477
N        0.6115944422   -4.2528061209    1.7702514986
H        3.1473967506    0.8274143440   -2.3663690598
C        2.8264863390    1.8363061783   -2.1966343037
C        2.4903593908    2.9748107953   -1.9638506736
C        2.1235556031    4.2591761577   -1.7039113220
N        1.8088198442    5.3648671691   -1.4865210566
H       -1.0751005541    2.6927893524    4.5842249968
C       -1.6426192934    2.4487081389    3.7190211325
C       -2.2951889535    2.1605901550    2.7440582920
C       -3.0254740283    1.8118195101    1.6498177139
N       -3.6529618536    1.5022470686    0.7125259715
H       -4.6290858332   -2.7048797268    2.4521706538
C       -4.1788995534   -2.3181745494    1.5701270385
C       -3.6950246253   -1.8823493592    0.5530182517
C       -3.1197246266   -1.4338576242   -0.5960344057
N       -2.6130098823   -1.0829222916   -1.5899462808
H        3.2050946670   -3.8936699507    1.9399885077
C        3.3780939458   -3.2738846821    1.0933243494
C        3.5250951990   -2.6076341894    0.0962475963
C        3.6678617703   -1.8241337886   -1.0043969148
N        3.7759106709   -1.1307566427   -1.9387607140
H       -0.5281698075    0.3647449806   -1.3130906957
C       -0.0892035005    0.3747793919   -0.3435500825
C        0.3447356948    0.3317700116    0.7841647112
C        0.7819264991    0.2802047304    2.0727106644
N        1.1265401563    0.2375466917    3.1897243147
30   
Iteration 15 Energy -1011.88928642
H       -1.3649140927   -3.2821448739   -2.3916043780
C       -0.8351567122   -3.6131202933   -1.5316855674
C       -0.2758959924   -3.9965020034   -0.5317038791
C        0.3438813809   -4.4115742202    0.6044679870
N        0.8851200585   -4.7629697142    1.5800036503
H        3.3171627752    1.0093250771   -2.1441578294
C        2.9551820542    2.0194682276   -2.1292386286
C        2.5974646796    3.1747355584   -2.0944201269
C        2.2187957524    4.4816723721   -2.0792835023
N        1.9030344544    5.6082785240   -2.0791962298
H       -1.0503876242    2.9306664367    4.6238230691
C       -1.6242446915    2.6123765825    3.7871113537
C       -2.2928538691    2.2408759732    2.8520609350
C       -3.0507151438    1.8029594966    1.8091858066
N       -3.7068506478    1.4154686649    0.9214223343
H       -5.2118822946   -2.7888922578    2.2564727347
C       -4.6264151590   -2.3925158054    1.4625654779
C       -3.9956612311   -1.9469958225    0.5339123334
C       -3.2807598824   -1.5132797348   -0.5390914436
N       -2.6646444817   -1.1879261799   -1.4783048234
H        3.3088462067   -4.1433801483    1.7710724327
C        3.5211251732   -3.4147186812    1.0258485456
C        3.6764184577   -2.6375661839    0.1138455546
C        3.8417441530   -1.7268507693   -0.8797717331
N        3.9705025221   -0.9260632467   -1.7209415533
H       -0.4663116169    0.3950570799   -1.2938097230
C       -0.0491075092    0.3960699824   -0.3154513020
C        0.3857219979    0.3491167453    0.8112698072
C        0.8031572224    0.2814548814    2.1048924211
N        1.1246439164    0.2179743874    3.2277067319
30   
Iteration 16 Energy -1011.89109198
H       -1.5312619043   -3.1578675999   -2.0831940159
C       -0.9194845373   -3.6507992863   -1.3669697335
C       -0.2650072641   -4.1954019815   -0.5095819098
C        0.4653097054   -4.7884402500    0.4712172058
N        1.0990467930   -5.2874371931    1.3182591779
H        3.4452599950    1.2261463468   -1.9411081935
C        3.0727378774    2.2243101952   -2.0736723401
C        2.7093412557    3.3681908864   -2.2278778478
C        2.3288418733    4.6589653403   -2.4331618807
N        2.0174489156    5.7707503300   -2.6235683719
H       -1.0138354781    3.1356996266    4.6228641943
C       -1.6091306716    2.7482511688    3.8313433489
C       -2.2962585209    2.2987239868    2.9451748364
C       -3.0740768056    1.7740006972    1.9581717560
N       -3.7452902259    1.3086295459    1.1203724952
H       -5.7355659236   -2.8209913152    2.0596035307
C       -5.0596253176   -2.4298078872    1.3382212917
C       -4.3133236924   -1.9859661898    0.4988194958
C       -3.4760767440   -1.5640254807   -0.4861871526
N       -2.7513737273   -1.2543638741   -1.3502258321
H        3.4138171769   -4.3425287737    1.5965528149
C        3.6658552187   -3.5362910696    0.9480242402
C        3.8264050501   -2.6534647935    0.1383149885
C        3.9897136276   -1.6260809850   -0.7350113791
N        4.1069031239   -0.7256261087   -1.4702532646
H       -0.4295074335    0.3936719205   -1.2536186514
C       -0.0211191173    0.3943068319   -0.2715818095
C        0.4237370435    0.3614712788    0.8515241905
C        0.8504880868    0.3035928174    2.1423366259
N        1.1830314491    0.2433817980    3.2622127595
30   
Iteration 17 Energy -1011.89310699
H       -1.5536744979   -3.0285856101   -1.6753227536
C       -0.9305204614   -3.7229937367   -1.1612357152
C       -0.2365405208   -4.4457381775   -0.4856597114
C        0.5630201397   -5.2198870498    0.2949998395
N        1.2627746905   -5.8606866227    0.9793100238
H        3.5616224287    1.4657335199   -1.7660976361
C        3.2051968240    2.4388072647   -2.0441403023
C        2.8426887400    3.5447896636   -2.3762303507
C        2.4582116338    4.7909596934   -2.7696022052
N        2.1452280805    5.8648851617   -3.1137154927
H       -0.9516051016    3.2929612308    4.5610223963
C       -1.5920815869    2.8438732662    3.8404163575
C       -2.3093390583    2.3253198916    3.0181620649
C       -3.1079639140    1.7215873560    2.0949388106
N       -3.7863725791    1.1837069337    1.3081126397
H       -6.2289367662   -2.7925842266    1.8816340001
C       -5.5080173292   -2.4206198639    1.1946418101
C       -4.6837060369   -1.9864592641    0.4265255378
C       -3.7562771155   -1.5638411162   -0.4729987759
N       -2.9443726428   -1.2473882094   -1.2529553300
H        3.5097992822   -4.5000282371    1.3984750577
C        3.7911847806   -3.6310050692    0.8468608269
C        3.9570485054   -2.6397751325    0.1744279908
C        4.0963091748   -1.4965025115   -0.5494299828
N        4.1744978981   -0.4987226569   -1.1528893460
H       -0.4374499792    0.3276328985   -1.1531362439
C       -0.0089418294    0.3491801031   -0.1798730512
C        0.4762947189    0.3683208799    0.9263739153
C        0.9713931313    0.3696477799    2.1936364581
N        1.3775291797    0.3584117138    3.2907498325
30   
Iteration 18 Energy -1011.89434608
H       -1.5154983102   -2.9881351675   -1.6709553324