3    
Iteration 47 Energy -92.33793710
C       -0.6422210474   -0.9099781906    0.0114131190
N        0.0031958371    0.0561405404   -0.0000952152
H        0.6440986667    0.8552133964   -0.0107843489
3    
Iteration 46 Energy -92.33933336
C       -0.6314788114   -0.8965952723    0.0112340054
N        0.0127359242    0.0708112890   -0.0002671217
H        0.6238163437    0.8271597295   -0.0104333288
3    
Iteration 45 Energy -92.33917743
C       -0.6292436473   -0.9046610207    0.0112467420
N       -0.0018602825    0.0758023364   -0.0001305542
H        0.6361773863    0.8302344305   -0.0105826329
3    
Iteration 44 Energy -92.33743134
C       -0.6331588251   -0.9168322159    0.0113456361
N       -0.0167026001    0.0719085068    0.0000496508
H        0.6549348817    0.8462994553   -0.0108617321
3    
Iteration 43 Energy -92.33879126
C       -0.6215460985   -0.9052539738    0.0111653232
N       -0.0102971428    0.0876622701   -0.0000929784
H        0.6369166978    0.8189674500   -0.0105387899
3    
Iteration 42 Energy -92.33829321
C       -0.6205773182   -0.9135975545    0.0111931847
N       -0.0248591763    0.0902078010    0.0000544860
H        0.6505099510    0.8247654997   -0.0107141157
3    
Iteration 41 Energy -92.33787061
C       -0.6100053665   -0.9098346700    0.0110602678
N       -0.0298951460    0.1046989161    0.0000427563
H        0.6449739690    0.8065115001   -0.0105694692
3    
Iteration 40 Energy -92.33730163
C       -0.6072045629   -0.9176563083    0.0110656957
N       -0.0469330080    0.1088093817    0.0002100748
H        0.6592110275    0.8102226727   -0.0107422156
3    
Iteration 39 Energy -92.33657304
C       -0.5968542673   -0.9169639269    0.0109493528
N       -0.0571385667    0.1227236716    0.0002575188
H        0.6590662905    0.7956160015   -0.0106733167
3    
Iteration 38 Energy -92.33561151
C       -0.5888333668   -0.9202581393    0.0108768481
N       -0.0729845328    0.1328259364    0.0003841932
H        0.6668913561    0.7888079490   -0.0107274865
3    
Iteration 37 Energy -92.33451800
C       -0.5792657822   -0.9213881539    0.0107774607
N       -0.0868184697    0.1445949872    0.0004811901
H        0.6711577084    0.7781689128   -0.0107250960
3    
Iteration 36 Energy -92.33329935
C       -0.5696584777   -0.9225226576    0.0106776598
N       -0.1014387425    0.1558052390    0.0005893587
H        0.6761706767    0.7680931648   -0.0107334636
3    
Iteration 35 Energy -92.33196390
C       -0.5594830895   -0.9228481625    0.0105679201
N       -0.1157156163    0.1672220653    0.0006928211
H        0.6802721623    0.7570018434   -0.0107271864
3    
Iteration 34 Energy -92.33051072
C       -0.5489648112   -0.9226807750    0.0104521603
N       -0.1300989310    0.1785150641    0.0007980179
H        0.6841371987    0.7455414572   -0.0107166233
3    
Iteration 33 Energy -92.32894042
C       -0.5380108356   -0.9218731638    0.0103286867
N       -0.1443661623    0.1898105404    0.0009019342
H        0.6874504545    0.7334383696   -0.0106970660
3    
Iteration 32 Energy -92.32725110
C       -0.5266810968   -0.9204943327    0.0101984727
N       -0.1586167289    0.2010219905    0.0010060555
H        0.6903712822    0.7208480885   -0.0106709734
3    
Iteration 31 Energy -92.32544059
C       -0.5149589822   -0.9185062773    0.0100611615
N       -0.1727803427    0.2121707182    0.0011095153
H        0.6928127813    0.7077113053   -0.0106371219
3    
Iteration 30 Energy -92.32350554
C       -0.5028765987   -0.9159356946    0.0099172271
N       -0.1868874796    0.2232147553    0.0012128402
H        0.6948375348    0.6940966855   -0.0105965124
3    
Iteration 29 Energy -92.32144232
C       -0.4904381451   -0.9127726765    0.0097666697
N       -0.2009060411    0.2341505449    0.0013156956
H        0.6964176427    0.6799978777   -0.0105488104
3    
Iteration 28 Energy -92.31924706
C       -0.4776696209   -0.9090346715    0.0096098540
N       -0.2148447832    0.2449504369    0.0014183048
H        0.6975878606    0.6654599808   -0.0104946038
3    
Iteration 27 Energy -92.31691634
C       -0.4645865466   -0.9047266285    0.0094469724
N       -0.2286907210    0.2556008444    0.0015205882
H        0.6983507241    0.6505015303   -0.0104340057
3    
Iteration 26 Energy -92.31444759
C       -0.4512115494   -0.8998626627    0.0092783375
N       -0.2424429039    0.2660827889    0.0016226231
H        0.6987279098    0.6351556200   -0.0103674057
3    
Iteration 25 Energy -92.31183975
C       -0.4375666939   -0.8944568287    0.0091042551
N       -0.2561005680    0.2763792075    0.0017244798
H        0.6987407185    0.6194533675   -0.0102951800
3    
Iteration 24 Energy -92.30909383
C       -0.4236733104   -0.8885231488    0.0089250231
N       -0.2696626589    0.2864752775    0.0018262149
H        0.6984094258    0.6034236175   -0.0102176831
3    
Iteration 23 Energy -92.30621348
C       -0.4095539478   -0.8820775372    0.0087409614
N       -0.2831327434    0.2963558789    0.0019279372
H        0.6977601477    0.5870974045   -0.0101353436
3    
Iteration 22 Energy -92.30320551
C       -0.3952293303   -0.8751344080    0.0085523628
N       -0.2965131384    0.3060084463    0.0020297299
H        0.6968159252    0.5705017079   -0.0100485378
3    
Iteration 21 Energy -92.30008022
C       -0.3807214710   -0.8677094511    0.0083595405
N       -0.3098112780    0.3154195364    0.0021317363
H        0.6956062055    0.5536656609   -0.0099577219
3    
Iteration 20 Energy -92.29685163
C       -0.3660503302   -0.8598159851    0.0081627740
N       -0.3230330424    0.3245777471    0.0022340731
H        0.6941568292    0.5366139843   -0.0098632922
3    
Iteration 19 Energy -92.29353743
C       -0.3512339889   -0.8514654380    0.0079623136
N       -0.3361821644    0.3334738004    0.0023368240
H        0.6924896098    0.5193673838   -0.0097655826
3    
Iteration 18 Energy -92.29015889
C       -0.3363011318   -0.8426796615    0.0077585736
N       -0.3492861927    0.3420914728    0.0024403648
H        0.6906607810    0.5019639349   -0.0096653835
3    
Iteration 17 Energy -92.28674007
C       -0.3212643734   -0.8334597114    0.0075516967
N       -0.3623392927    0.3504225092    0.0025446699
H        0.6886771227    0.4844129484   -0.0095628117
3    
Iteration 16 Energy -92.28330735
C       -0.3061515256   -0.8238230104    0.0073420674
N       -0.3753679340    0.3584514182    0.0026501000
H        0.6865929161    0.4667473383   -0.0094586125
3    
Iteration 15 Energy -92.27988837
C       -0.2909933762   -0.8137855681    0.0071300960
N       -0.3884034770    0.3661597930    0.0027570828
H        0.6844703098    0.4490015213   -0.0093536239
3    
Iteration 14 Energy -92.27651098
C       -0.2758287183   -0.8033659232    0.0069162920
N       -0.4014907734    0.3735239853    0.0028662175
H        0.6823929482    0.4312176841   -0.0092489546
3    
Iteration 13 Energy -92.27320205
C       -0.2607102837   -0.7925877447    0.0067013410
N       -0.4146968699    0.3805118058    0.0029783856
H        0.6804806100    0.4134516852   -0.0091461717
3    
Iteration 12 Energy -92.26998633
C       -0.2457118565   -0.7814820421    0.0064861925
N       -0.4281188413    0.3870790262    0.0030948520
H        0.6789041543    0.3957787621   -0.0090474896
3    
Iteration 11 Energy -92.26688539
C       -0.2309362811   -0.7700894595    0.0062721581
N       -0.4418887702    0.3931665153    0.0032173333
H        0.6778985077    0.3782986904   -0.0089559366
3    
Iteration 10 Energy -92.26391710
C       -0.2165309136   -0.7584663570    0.0060611086
N       -0.4561828858    0.3986941118    0.0033481255
H        0.6777872559    0.3611479914   -0.0088756792
3    
Iteration 9 Energy -92.26109556
C       -0.2026836251   -0.7466824013    0.0058554188
N       -0.4711907468    0.4035682394    0.0034897321
H        0.6789478283    0.3444899081   -0.0088115960
3    
Iteration 8 Energy -92.25843236
C       -0.1896024346   -0.7348148567    0.0056577190
N       -0.4870640904    0.4076983819    0.0036442291
H        0.6817399815    0.3284922210   -0.0087683932
3    
Iteration 7 Energy -92.25593985
C       -0.1774596434   -0.7229295458    0.0054701961
N       -0.5038428891    0.4110281079    0.0038123136
H        0.6863759890    0.3132771841   -0.0087489548
3    
Iteration 6 Energy -92.25363676
C       -0.1663461163   -0.7110658439    0.0052940249
N       -0.5214299666    0.4135525635    0.0039929456
H        0.6928495395    0.2988890266   -0.0087534156
3    
Iteration 5 Energy -92.25155326
C       -0.1562530791   -0.6992308070    0.0051291421
N       -0.5396053517    0.4153170643    0.0041835115
H        0.7009318873    0.2852894890   -0.0087790987
3    
Iteration 4 Energy -92.24973205
C       -0.1470986332   -0.6874141202    0.0049746048
N       -0.5580549541    0.4163957797    0.0043802357
H        0.7102270438    0.2723940867   -0.0088212856
3    
Iteration 3 Energy -92.24822476
C       -0.1386591128   -0.6755857144    0.0048278292
N       -0.5763287775    0.4169280624    0.0045775565
H        0.7200613468    0.2600333983   -0.0088718308
3    
Iteration 2 Energy -92.24705917
C       -0.1328370074   -0.6647572121    0.0047142760
N       -0.5944288325    0.4162440317    0.0047785832
H        0.7323392965    0.2498889265   -0.0089593043
3    
Iteration 1 Energy -92.24628553
C       -0.1172921969   -0.6502104511    0.0044772958
N       -0.6023553686    0.4184361704    0.0048551353
H        0.7247210220    0.2331500269   -0.0087988762
3    
Iteration 1 Energy -92.24576646
C       -0.1087699616   -0.6355062979    0.0043163627
N       -0.6585850029    0.4228618226    0.0054494554
H        0.7724284211    0.2140202215   -0.0092322631
3    
Iteration 2 Energy -92.24607189
C       -0.0930406509   -0.6220904030    0.0040825772
N       -0.6606071815    0.4243164505    0.0054648585
H        0.7587212889    0.1991496987   -0.0090138808
3    
Iteration 3 Energy -92.24627954
C       -0.0909855008   -0.6172410252    0.0040377608
N       -0.6650568538    0.4232336238    0.0055184937
H        0.7611158111    0.1953831476   -0.0090226996
3    
Iteration 4 Energy -92.24647148
C       -0.1057985380   -0.6189730296    0.0042076827
N       -0.6830411005    0.4187645042    0.0057356984
H        0.7939130950    0.2015842716   -0.0094098263
3    
Iteration 5 Energy -92.24762516
C       -0.0921606091   -0.6046318732    0.0039924965
N       -0.6919713163    0.4190087907    0.0058321999
H        0.7892053819    0.1869988287   -0.0092911416
3    
Iteration 6 Energy -92.24850390
C       -0.0955502039   -0.5977405867    0.0039977931
N       -0.7106273913    0.4161324326    0.0060494088
H        0.8112510517    0.1829839002   -0.0095136470
3    
Iteration 7 Energy -92.25036876
C       -0.0857711376   -0.5833705805    0.0038246600
N       -0.7244253728    0.4147700576    0.0062065304
H        0.8152699669    0.1699762691   -0.0094976355
3    
Iteration 8 Energy -92.25251961
C       -0.0817212875   -0.5706032494    0.0037215462
N       -0.7424967905    0.4122129415    0.0064158764
H        0.8292915346    0.1597660541   -0.0096038676
3    
Iteration 9 Energy -92.25517518
C       -0.0726576389   -0.5554310219    0.0035525371
N       -0.7574148250    0.4100290972    0.0065890285
H        0.8351459204    0.1467776709   -0.0096080107
3    
Iteration 10 Energy -92.25790422
C       -0.0733424476   -0.5443186415    0.0035088108
N       -0.7769504470    0.4066788087    0.0068180370
H        0.8553663511    0.1390155789   -0.0097932928
3    
Iteration 11 Energy -92.26105429
C       -0.0700415967   -0.5310997096    0.0034118040
N       -0.7943034680    0.4034409204    0.0070226667
H        0.8694185212    0.1290345354   -0.0099009157
3    
Iteration 12 Energy -92.26465789
C       -0.0606153347   -0.5152834580    0.0032358626
N       -0.8074959314    0.4004217021    0.0071808044
H        0.8731847225    0.1162375020   -0.0098831121
3    
Iteration 13 Energy -92.26686611
C       -0.0668574691   -0.5087261876    0.0032738832
N       -0.8244312920    0.3973931558    0.0073799033
H        0.8963622177    0.1127087779   -0.0101202316
3    
Iteration 14 Energy -92.27093019
C       -0.0577303736   -0.4928124176    0.0031007629
N       -0.8369557948    0.3938726023    0.0075330492
H        0.8997596248    0.1003155615   -0.0101002572
3    
Iteration 15 Energy -92.27321164
C       -0.0625325113   -0.4852913710    0.0031185994
N       -0.8526503648    0.3908324141    0.0077186372
H        0.9202563326    0.0958347030   -0.0103036816
3    
Iteration 16 Energy -92.27756727
C       -0.0523274295   -0.4690267849    0.0029320776
N       -0.8632646375    0.3869440096    0.0078525952
H        0.9206655234    0.0834585215   -0.0102511179
3    
Iteration 17 Energy -92.28188702
C       -0.0452855555   -0.4528962124    0.0027807543
N       -0.8762815790    0.3825485734    0.0080151565
H        0.9266405910    0.0717233852   -0.0102623559
3    
Iteration 18 Energy -92.28623560
C       -0.0400750207   -0.4369268979    0.0026501949
N       -0.8902317987    0.3778608482    0.0081892677
H        0.9353802759    0.0604417959   -0.0103059077
3    
Iteration 19 Energy -92.29059406
C       -0.0357235296   -0.4209604287    0.0025290399
N       -0.9043038302    0.3729566884    0.0083657081
H        0.9451008164    0.0493794865   -0.0103611930
3    
Iteration 20 Energy -92.29493202
C       -0.0319241807   -0.4049328746    0.0024136395
N       -0.9182173429    0.3678492782    0.0085413521
H        0.9552149801    0.0384593426   -0.0104214367
3    
Iteration 21 Energy -92.29921996
C       -0.0284845639   -0.3888026203    0.0023016985
N       -0.9318301901    0.3625484607    0.0087146006
H        0.9653882104    0.0276299058   -0.0104827442
3    
Iteration 22 Energy -92.30343206
C       -0.0252832203   -0.3725446780    0.0021917739
N       -0.9450541957    0.3570593282    0.0088844660
H        0.9754108725    0.0168610960   -0.0105426850
3    
Iteration 23 Energy -92.30754658
C       -0.0222441171   -0.3561470603    0.0020829792
N       -0.9578315953    0.3513853806    0.0090503008
H        0.9851491689    0.0061374259   -0.0105997251
3    
Iteration 24 Energy -92.31154540
C       -0.0193158867   -0.3396060194    0.0019747356
N       -0.9701199762    0.3455297111    0.0092116270
H        0.9945093194   -0.0045479455   -0.0106528077
3    
Iteration 25 Energy -92.31541357
C       -0.0164634954   -0.3229234851    0.0018666690
N       -0.9818873842    0.3394955533    0.0093680803
H        1.0034243361   -0.0151963219   -0.0107011945
3    
Iteration 26 Energy -92.31913901
C       -0.0136691048   -0.3061061686    0.0017586154
N       -0.9931141735    0.3332869128    0.0095194277
H        1.0118567348   -0.0258049981   -0.0107444881
3    
Iteration 27 Energy -92.32271154
C       -0.0109152566   -0.2891622569    0.0016504215
N       -1.0037795436    0.3269076185    0.0096654239
H        1.0197682566   -0.0363696154   -0.0107822905
3    
Iteration 28 Energy -92.32612289
C       -0.0081933291   -0.2721020843    0.0015420408
N       -1.0138699579    0.3203621894    0.0098059002
H        1.0271367435   -0.0468843588   -0.0108143861
3    
Iteration 29 Energy -92.32936605
C       -0.0054970653   -0.2549370889    0.0014334576
N       -1.0233734283    0.3136553981    0.0099407035
H        1.0339439502   -0.0573425630   -0.0108406062
3    
Iteration 30 Energy -92.33243507
C       -0.0028233331   -0.2376796381    0.0013246946
N       -1.0322802923    0.3067923769    0.0100697047
H        1.0401770819   -0.0677369926   -0.0108608444
3    
Iteration 31 Energy -92.33532457
C       -0.0001649921   -0.2203424655    0.0012157325
N       -1.0405774045    0.2997779698    0.0101927375
H        1.0458158531   -0.0780597581   -0.0108749150
3    
Iteration 32 Energy -92.33802970
C        0.0024790245   -0.2029393892    0.0011066232
N       -1.0482570902    0.2926178817    0.0103096919
H        1.0508515222   -0.0883027463   -0.0108827601
3    
Iteration 33 Energy -92.34054570
C        0.0051101865   -0.1854852275    0.0009974190
N       -1.0553104665    0.2853180359    0.0104204434
H        1.0552737366   -0.0984570621   -0.0108843075
3    
Iteration 34 Energy -92.34286767
C        0.0077287751   -0.1679959916    0.0008881906
N       -1.0617291599    0.2778848900    0.0105248707
H        1.0590738413   -0.1085131521   -0.0108795064
3    
Iteration 35 Energy -92.34499035
C        0.0103344523   -0.1504895567    0.0007790242
N       -1.0675038429    0.2703255614    0.0106228390
H        1.0622428471   -0.1184602585   -0.0108683083
3    
Iteration 36 Energy -92.34690787
C        0.0129228817   -0.1329862527    0.0006700607
N       -1.0726270828    0.2626486064    0.0107142277
H        1.0647776576   -0.1282866075   -0.0108507335
3    
Iteration 37 Energy -92.34861363
C        0.0154927488   -0.1155111238    0.0005614299
N       -1.0770844714    0.2548636581    0.0107988349
H        1.0666651791   -0.1379767881   -0.0108267100
3    
Iteration 38 Energy -92.35010032
C        0.0180366199   -0.0980954596    0.0004533575
N       -1.0808631475    0.2469836451    0.0108764603
H        1.0678999841   -0.1475124393   -0.0107962629
3    
Iteration 39 Energy -92.35136021
C        0.0205392789   -0.0807826109    0.0003462094
N       -1.0839475412    0.2390271240    0.0109468483
H        1.0684817188   -0.1568687669   -0.0107595028
3    
Iteration 40 Energy -92.35238560
C        0.0229775439   -0.0636376565    0.0002405390
N       -1.0863141638    0.2310222378    0.0110096123
H        1.0684100763   -0.1660088351   -0.0107165964
3    
Iteration 41 Energy -92.35316957
C        0.0253116668   -0.0467705375    0.0001372876
N       -1.0879259523    0.2230174527    0.0110641238
H        1.0676877420   -0.1748711689   -0.0106678565
3    
Iteration 42 Energy -92.35370720
C        0.0274783791   -0.0303992677    0.0000381515
N       -1.0887083510    0.2151083555    0.0111091273
H        1.0663034285   -0.1833333416   -0.0106137239
3    
Iteration 43 Energy -92.35393896
C        0.0303582075   -0.0188991813   -0.0000463310
N       -1.0858284108    0.2088107203    0.0111066665
H        1.0605436598   -0.1885357928   -0.0105267806
3    
Iteration 44 Energy -92.35399226
C        0.0296668944   -0.0134655448   -0.0000638150
N       -1.0896656412    0.2069398996    0.0111572379
H        1.0650722034   -0.1920986086   -0.0105598680
3    
Iteration 45 Energy -92.35328515
C        0.0402178426   -0.0085098721   -0.0002019994
N       -1.0793419675    0.2017287755    0.0110683931
H        1.0441975814   -0.1918431572   -0.0103328388
3    
Iteration 46 Energy -92.35405567
C        0.0302900416   -0.0048425619   -0.0001103675
N       -1.0867128763    0.2022072014    0.0111467688
H        1.0614962911   -0.1959888932   -0.0105028464
3    
Iteration 47 Energy -92.35404660
C        0.0297051106   -0.0043429087   -0.0005895657
N       -1.0898664674    0.2026016557    0.0114142610
H        1.0652348133   -0.1968830008   -0.0102911404
3    
Iteration 48 Energy -92.35191500
C        0.0464428000   -0.0078165992   -0.0002980380
N       -1.0724235891    0.1995423668    0.0110227806
H        1.0310542456   -0.1903500214   -0.0101911878
