30   
Iteration 0 Energy -1011.84502801
H       -0.5220000000   -2.8130000000   -2.8020000000
C       -0.4610000000   -2.9670000000   -1.7520000000
C       -0.3920000000   -3.1420000000   -0.5590000000
C       -0.3130000000   -3.3390000000    0.7870000000
N       -0.2460000000   -3.5080000000    1.9420000000
H        2.9550000000    0.7240000000   -2.6980000000
C        2.5350000000    1.4220000000   -2.0160000000
C        2.0570000000    2.2150000000   -1.2410000000
C        1.5180000000    3.1100000000   -0.3660000000
N        1.0560000000    3.8780000000    0.3840000000
H       -0.5780000000    1.4180000000    3.7160000000
C       -1.2870000000    1.3900000000    2.9240000000
C       -2.0920000000    1.3580000000    2.0240000000
C       -3.0000000000    1.3220000000    1.0100000000
N       -3.7790000000    1.2910000000    0.1390000000
H       -2.6160000000   -1.7620000000    2.5200000000
C       -2.7220000000   -1.6770000000    1.4660000000
C       -2.8430000000   -1.5800000000    0.2680000000
C       -2.9790000000   -1.4710000000   -1.0830000000
N       -3.0960000000   -1.3780000000   -2.2420000000
H        2.3760000000   -2.1380000000    2.4400000000
C        2.3780000000   -2.1520000000    1.3780000000
C        2.3790000000   -2.1680000000    0.1700000000
C        2.3800000000   -2.1860000000   -1.1920000000
N        2.3820000000   -2.2010000000   -2.3610000000
H       -0.3920000000   -0.0050000000   -0.7010000000
C        0.2610000000    0.2270000000    0.1050000000
C        1.0030000000    0.4910000000    1.0210000000
C        1.8390000000    0.7880000000    2.0550000000
N        2.5560000000    1.0440000000    2.9410000000
30   
Iteration 1 Energy -1011.85932321
H       -0.5323384679   -2.8497307863   -2.7739496465
C       -0.4921794348   -3.0528594674   -1.7299326191
C       -0.4377245506   -3.2570969241   -0.5402296761
C       -0.3661404668   -3.4514301064    0.8035785392
N       -0.3005938381   -3.5975517764    1.9614894141
H        2.9576677091    0.7220851536   -2.7130109306
C        2.5614995246    1.4650980375   -2.0631621555
C        2.0948552742    2.2797476495   -1.3027998248
C        1.5543297748    3.1665225866   -0.4202842128
N        1.0846038596    3.9119835696    0.3488159657
H       -0.6087792435    1.4357546363    3.7424089927
C       -1.3436408289    1.4391639624    2.9736187202
C       -2.1508303688    1.4427100126    2.0754872293
C       -3.0338032835    1.4376028901    1.0404302189
N       -3.7854475524    1.4183489071    0.1447177777
H       -2.6357248128   -1.8174890735    2.5078970180
C       -2.7906930938   -1.7313183178    1.4602911123
C       -2.9379505605   -1.6163658385    0.2674970616
C       -3.0629246268   -1.4684221585   -1.0789711537
N       -3.1417040979   -1.3456050455   -2.2393918912
H        2.4445556901   -2.2035877090    2.4196119795
C        2.5273778359   -2.2155667890    1.3593529348
C        2.5677256472   -2.2024379415    0.1532113037
C        2.5527385535   -2.1606744329   -1.2050597356
N        2.5161743163   -2.1155489317   -2.3735382450
H       -0.4133117210    0.0042911002   -0.6989827475
C        0.2298713518    0.2336045478    0.1146795782
C        0.9675918694    0.4948577824    1.0318937855
C        1.8058110466    0.7888778490    2.0611449007
N        2.5259844951    1.0360366238    2.9501863033
30   
Iteration 2 Energy -1011.86922627
H       -0.5154109849   -2.9381388168   -2.7486820115
C       -0.4498181643   -3.1763608890   -1.7137036131
C       -0.3836841267   -3.4061785499   -0.5285998196
C       -0.3135153318   -3.5970487697    0.8156392333
N       -0.2539410924   -3.7184385857    1.9774444288
H        2.9534337757    0.7186054690   -2.7477752762
C        2.5976414530    1.5196580016   -2.1431486406
C        2.1565271114    2.3701657250   -1.4064074182
C        1.6300611373    3.2652478777   -0.5248533229
N        1.1641490492    3.9994525991    0.2577906551
H       -0.6963540724    1.5004027131    3.8287765998
C       -1.4470862352    1.5364270337    3.0761144152
C       -2.2435841843    1.5763085871    2.1689343612
C       -3.0848241420    1.5941149572    1.1000228791
N       -3.7891614919    1.5827720795    0.1659714173
H       -2.7278566859   -1.9026607698    2.4930615435
C       -2.9375094553   -1.7724986272    1.4592185696
C       -3.1106566281   -1.6154849953    0.2739693024
C       -3.2061005187   -1.4286350188   -1.0696914713
N       -3.2243012042   -1.2775834640   -2.2297577475
H        2.5746951931   -2.3610744539    2.4015490495
C        2.6874211284   -2.3388898993    1.3437582785
C        2.7451981754   -2.2622905825    0.1392685905
C        2.7187969882   -2.1183944611   -1.2120868916
N        2.6547018161   -1.9654826897   -2.3708987252
H       -0.4513168383   -0.0127987861   -0.7125853776
C        0.1917073225    0.2016676115    0.1059977580
C        0.9232925945    0.4587362735    1.0310339379
C        1.7455871419    0.7564104978    2.0716187436
N        2.4489082592    1.0029899500    2.9750205600
30   
Iteration 3 Energy -1011.87408478
H       -0.5095277600   -3.0354169871   -2.7399375098
C       -0.4381922106   -3.2640977875   -1.7033101304
C       -0.3703518629   -3.4946056143   -0.5185571972
C       -0.3002777091   -3.6846179992    0.8270483433
N       -0.2413534600   -3.8041160584    1.9892336237
H        2.9413611845    0.7057729419   -2.7899655887
C        2.6169830627    1.5384841550   -2.2099359560
C        2.2035179716    2.4177605487   -1.4906684640
C        1.7053150127    3.3416478787   -0.6229343036
N        1.2616334837    4.0983479647    0.1510400143
H       -0.7938900093    1.5853364793    3.9367009726
C       -1.5278978418    1.6344403903    3.1683830466
C       -2.3036672629    1.6921422828    2.2437791663
C       -3.1195139325    1.7218492746    1.1547245405
N       -3.7956746998    1.7202004090    0.2001019079
H       -2.8376376090   -2.0050524217    2.4943203323
C       -3.0371314592   -1.8300879850    1.4648982182
C       -3.2031173124   -1.6307632433    0.2845579687
C       -3.2753123071   -1.4093703570   -1.0566051593
N       -3.2672378576   -1.2300954949   -2.2127077585
H        2.7254239139   -2.5473067327    2.3785769168
C        2.8256660084   -2.4495836212    1.3238319132
C        2.8840394571   -2.2901063980    0.1273100087
C        2.8631938608   -2.0415108403   -1.2097695903
N        2.8054231624   -1.7847990467   -2.3501019787
H       -0.4951357570   -0.0323910484   -0.7395802254
C        0.1477203340    0.1755296051    0.0815318315
C        0.8697813315    0.4266715940    1.0169224084
C        1.6711022371    0.7138240220    2.0782055908
N        2.3517580245    0.9529140912    2.9999070981
30   
Iteration 4 Energy -1011.87804018
H       -0.5096443845   -3.1879001717   -2.7384695475
C       -0.4277869177   -3.3816621786   -1.6955864437
C       -0.3523501753   -3.5959679589   -0.5084964078
C       -0.2761694219   -3.7839519246    0.8377151844
N       -0.2132006174   -3.9137343949    1.9984312361
H        2.9213910427    0.6862338320   -2.8540136872
C        2.6328097424    1.5511443345   -2.3006547659
C        2.2604967674    2.4661718947   -1.6034593092
C        1.8139504557    3.4429497572   -0.7663880425
N        1.4174167582    4.2544170950   -0.0228822276
H       -0.9400464227    1.7292845141    4.1056783553
C       -1.6287918041    1.7803434315    3.2968910538
C       -2.3669077722    1.8431154591    2.3423932968
C       -3.1550933943    1.8788399819    1.2326455165
N       -3.8090861488    1.8878943576    0.2627919355
H       -3.0242510758   -2.1507227261    2.5042211989
C       -3.1716037762   -1.9104417153    1.4790629258
C       -3.3014383536   -1.6501363744    0.3063097143
C       -3.3394559691   -1.3775389535   -1.0272313241
N       -3.3096407241   -1.1566882341   -2.1756736469
H        2.9433476912   -2.8402671651    2.3222577001
C        3.0087288204   -2.6063555181    1.2865540690
C        3.0602591021   -2.3128497057    0.1155098154
C        3.0613872018   -1.9130651063   -1.1850699272
N        3.0381324853   -1.5227657858   -2.2874699142
H       -0.5579567189   -0.0530884543   -0.7958190900
C        0.0742733809    0.1430917502    0.0366620316
C        0.7752455428    0.3787919073    0.9921104297
C        1.5429854963    0.6422219112    2.0848484171
N        2.1899991940    0.8636361363    3.0341315040
30   
Iteration 5 Energy -1011.87944414
H       -0.5129313411   -3.2862488073   -2.7430106996
C       -0.4250230265   -3.4498263087   -1.6956455995
C       -0.3410653332   -3.6434880705   -0.5057761741
C       -0.2554193204   -3.8300676919    0.8399726435
N       -0.1843855308   -3.9720295211    1.9987257168
H        2.9178935806    0.6992471922   -2.8943680794
C        2.6362666899    1.5795554707   -2.3604664257
C        2.2869411466    2.5116337045   -1.6742556095
C        1.8781327876    3.5229602173   -0.8605210198
N        1.5191026991    4.3746697924   -0.1435371187
H       -1.0306617882    1.8370322177    4.2181380101
C       -1.6807990983    1.8771299270    3.3776330736
C       -2.3910782934    1.9266002429    2.4015742282
C       -3.1649003330    1.9561740734    1.2816536841
N       -3.8149133570    1.9663964278    0.3092257391
H       -3.1651156395   -2.2370317503    2.5182235784
C       -3.2574512190   -1.9629052246    1.4952009263
C       -3.3425306264   -1.6659829211    0.3272251278
C       -3.3508730718   -1.3546801616   -0.9980536572
N       -3.3080796738   -1.1017607767   -2.1394631838
H        3.0728475574   -3.0319151984    2.2754288199
C        3.1171012193   -2.7063020294    1.2638376956
C        3.1615407845   -2.3317361362    0.1161062726
C        3.1823384214   -1.8598942571   -1.1594909303
N        3.1897007521   -1.4213316320   -2.2430060080
H       -0.6013517516   -0.0552521669   -0.8466207258
C        0.0148518854    0.1268505380    0.0011228019
C        0.6966939375    0.3445747404    0.9746517140
C        1.4416732296    0.5866830177    2.0881502262
N        2.0684947294    0.7919450828    3.0543450171
30   
Iteration 6 Energy -1011.88048604
H       -0.5266502746   -3.3770758522   -2.7513393071
C       -0.4322230424   -3.5110596124   -1.7004935600
C       -0.3337862971   -3.6778191033   -0.5077768901
C       -0.2292894950   -3.8596934997    0.8371275194
N       -0.1407021459   -4.0120287948    1.9933052006
H        2.9267423746    0.7330489165   -2.9241456375
C        2.6354026032    1.6239233248   -2.4137180752
C        2.3033792816    2.5715282600   -1.7403475553
C        1.9318083553    3.6193104323   -0.9560721374
N        1.6123451540    4.5123286553   -0.2714593154
H       -1.1082930136    1.9593592966    4.3270058631
C       -1.7194814710    1.9782666712    3.4572261047
C       -2.4013139967    1.9987472848    2.4601397266
C       -3.1611446705    2.0066109205    1.3304651418
N       -3.8100749374    2.0047198465    0.3572904138
H       -3.3254766596   -2.3213270335    2.5372828168
C       -3.3481597213   -2.0194697964    1.5182523313
C       -3.3673314691   -1.6856594268    0.3575077994
C       -3.3286457610   -1.3297235668   -0.9555237657
N       -3.2592401096   -1.0375918811   -2.0862893057
H        3.1790978665   -3.2129223414    2.2281144338
C        3.2144413487   -2.8071728056    1.2457096541
C        3.2558045665   -2.3609450217    0.1239436200
C        3.2985094176   -1.8384826276   -1.1309694651
N        3.3339308851   -1.3769409135   -2.2040372059
H       -0.6465551828   -0.0434823268   -0.9140847254
C       -0.0518103201    0.1173729570   -0.0466359694
C        0.6051367617    0.3080902734    0.9494847874
C        1.3230960994    0.5225165692    2.0862171945
N        1.9274838982    0.7065711625    3.0708203532
30   
Iteration 7 Energy -1011.88139406
H       -0.5549733461   -3.4552488736   -2.7611209268
C       -0.4499337706   -3.5673013666   -1.7088096265
C       -0.3300080441   -3.7065707611   -0.5146020726
C       -0.1958864739   -3.8781570800    0.8289238798
N       -0.0784108691   -4.0329191383    1.9821878819
H        2.9419321667    0.7595814525   -2.9247518922
C        2.6374778985    1.6633704940   -2.4462995261
C        2.3195802364    2.6352024876   -1.8009078775
C        1.9809697459    3.7273194564   -1.0627788655
N        1.6979535586    4.6647470551   -0.4228191799
H       -1.1689397440    2.0955022829    4.4290522329
C       -1.7474107687    2.0832729634    3.5371366292
C       -2.4023394479    2.0620511629    2.5221682842
C       -3.1455301693    2.0322217382    1.3819559682
N       -3.7890081965    2.0016346752    0.4056267890
H       -3.5072774419   -2.4072179535    2.5562731733
C       -3.4516578906   -2.0802445375    1.5463783077
C       -3.3856368013   -1.7083489671    0.3991590223
C       -3.2731875263   -1.3029704698   -0.8947764197
N       -3.1485320440   -0.9652208436   -2.0080815030
H        3.2604071982   -3.3830979797    2.1761590486
C        3.3039548895   -2.9134611469    1.2227165590
C        3.3492114870   -2.3991076589    0.1304888874
C        3.4089866821   -1.8249297423   -1.1013491479
N        3.4601780949   -1.3341847956   -2.1610780433
H       -0.6954968397   -0.0182130024   -0.9976565694
C       -0.1253925624    0.1148934274   -0.1086786111
C        0.5001061787    0.2700907236    0.9136562877
C        1.1845634092    0.4504491527    2.0766069730
N        1.7613004286    0.6078571681    3.0822203721
30   
Iteration 8 Energy -1011.88249171
H       -0.6178540197   -3.5407574058   -2.7736235875
C       -0.4881045764   -3.6340020309   -1.7222957162
C       -0.3280694702   -3.7390190308   -0.5293424873
C       -0.1386146673   -3.8893965994    0.8100057604
N        0.0334711721   -4.0351388307    1.9575985314
H        2.9672738066    0.7868254541   -2.8778716801
C        2.6496124480    1.7152840225   -2.4587692795
C        2.3470886674    2.7313424157   -1.8769657785
C        2.0432773611    3.8872641046   -1.2247530398
N        1.8007525243    4.8840945209   -0.6625985875
H       -1.2259344071    2.2946303348    4.5509247803
C       -1.7704615637    2.2263168087    3.6403743164
C       -2.3923932129    2.1332530080    2.6087914616
C       -3.1084948990    2.0297221929    1.4558124967
N       -3.7353688706    1.9365434940    0.4726628859
H       -3.7821542866   -2.5203251900    2.5685326473
C       -3.6107990299   -2.1621544457    1.5824965498
C       -3.4075416192   -1.7416782692    0.4688154815
C       -3.1583746634   -1.2707194595   -0.7825525725
N       -2.9153877560   -0.8698140817   -1.8547441415
H        3.3357710949   -3.5959041461    2.1001356080
C        3.4094794423   -3.0622491925    1.1826029005
C        3.4692451486   -2.4653028373    0.1338124891
C        3.5443454384   -1.8207930407   -1.0622819104
N        3.6029740837   -1.2814916974   -2.0981457032
H       -0.7595356691    0.0387002348   -1.1252281021
C       -0.2268799888    0.1264423084   -0.2068944105
C        0.3448113676    0.2226973728    0.8536979139
C        0.9723266835    0.3467328442    2.0550798623
N        1.5025395411    0.4598970356    3.0917233219
30   
Iteration 9 Energy -1011.88345594
H       -0.6632688588   -3.5327501176   -2.7770407481
C       -0.5131912870   -3.6343248673   -1.7291639289
C       -0.3289570104   -3.7371533375   -0.5394859780
C       -0.1069102840   -3.8758330720    0.7961314079
N        0.0969709004   -4.0061743679    1.9404085624
H        2.9824981869    0.7789460436   -2.8107940176
C        2.6666608441    1.7225215697   -2.4243422267
C        2.3612915847    2.7616007244   -1.8861367408
C        2.0499211570    3.9386467291   -1.2761818381
N        1.8001303266    4.9514366828   -0.7465768335
H       -1.2026966041    2.3537003527    4.5585001533
C       -1.7548502461    2.2568056463    3.6550941579
C       -2.3768932826    2.1298854852    2.6272313899
C       -3.0839925512    1.9821987875    1.4735583422
N       -3.6978361324    1.8461015440    0.4871824909
H       -3.8734496759   -2.5435828092    2.5756735456
C       -3.6706851555   -2.1818578771    1.5968645382
C       -3.4223145697   -1.7565669486    0.4941465625
C       -3.1145159174   -1.2780285443   -0.7408708535
N       -2.8096659401   -0.8681732971   -1.7932903604
H        3.3065648896   -3.6220566633    2.0909582302
C        3.4080762701   -3.0986006009    1.1701569968
C        3.4833540664   -2.4964682469    0.1252917080
C        3.5550063559   -1.8385931557   -1.0638138974
N        3.6013654074   -1.2812924613   -2.0908808138
H       -0.7450958980    0.0944295741   -1.1755364698
C       -0.2294427499    0.1620893682   -0.2456799170
C        0.3127770237    0.2293605579    0.8324178760
C        0.9099894450    0.3231829581    2.0511214647
N        1.4161597718    0.4115502188    3.1020572014
30   
Iteration 10 Energy -1011.88517244
H       -0.8060853795   -3.3987350564   -2.7709966232
C       -0.5859981800   -3.5542455413   -1.7421294653
C       -0.3326028792   -3.6870196083   -0.5681881689
C       -0.0223968650   -3.8018756813    0.7518956500
N        0.2658858280   -3.8801606576    1.8828260643
H        3.0204089367    0.7169838810   -2.5502752072
C        2.7241758291    1.6994824870   -2.2482286970
C        2.3886203117    2.7869832473   -1.8387637248
C        2.0074823618    3.9899941211   -1.3270390337
N        1.6819219848    5.0130273782   -0.8620755891
H       -1.0338223494    2.3971183017    4.4485174773
C       -1.6515855915    2.2309108088    3.5991248960
C       -2.3114558433    2.0282994928    2.6077251912
C       -3.0120975933    1.7626541394    1.4714933489
N       -3.5906790235    1.5060281727    0.4876442328
H       -3.9803753584   -2.5286286096    2.6087386254
C       -3.7597254638   -2.1843156970    1.6273989221
C       -3.4650783708   -1.7897479314    0.5244613487
C       -3.0578658312   -1.3496219020   -0.6958924508
N       -2.6356919678   -0.9751078267   -1.7190016143
H        3.0809998808   -3.4982452841    2.1312233211
C        3.2652562750   -3.0864379634    1.1676320441
C        3.3936421223   -2.5558634221    0.0897268600
C        3.4449199966   -1.9235435586   -1.1135259139
N        3.4424080467   -1.3503874994   -2.1327393473
H       -0.5864226963    0.2888596098   -1.2570607130
C       -0.1009704428    0.3199428990   -0.3089101157
C        0.3672044278    0.3196130197    0.8052995630
C        0.8842165674    0.3365093889    2.0619335932
N        1.3227112837    0.3585291787    3.1461855219
30   
Iteration 11 Energy -1011.88569658
H       -0.8152656431   -3.4373873166   -2.7648983878
C       -0.5856543750   -3.5791997610   -1.7363153582
C       -0.3251538252   -3.7094503659   -0.5637610299
C       -0.0117021350   -3.8333189825    0.7544834480
N        0.2786485345   -3.9276373424    1.8836339433
H        3.0183061230    0.7323818834   -2.5745346075
C        2.7247360242    1.7165558234   -2.2733626471
C        2.3988672500    2.8071795329   -1.8642384035
C        2.0344107117    4.0211280980   -1.3674327332
N        1.7237434050    5.0579647334   -0.9234284330
H       -1.0734146990    2.4364841235    4.4950881231
C       -1.6700633166    2.2703116834    3.6309355288
C       -2.3195309611    2.0675960952    2.6326468073
C       -3.0218682727    1.8078216502    1.4963253369
N       -3.6098989814    1.5629955911    0.5153054675
H       -4.0504139051   -2.5629649937    2.5915212551
C       -3.7970429029   -2.2063079882    1.6224987848
C       -3.4814746412   -1.7973662143    0.5307040572
C       -3.0615131601   -1.3442312364   -0.6814305750
N       -2.6435241193   -0.9629115208   -1.7045266618
H        3.1420283605   -3.5826255907    2.0993591806
C        3.3078297655   -3.1198741185    1.1557417564
C        3.4306235595   -2.5569460418    0.0936319662
C        3.4990873940   -1.8975587595   -1.0937376597
N        3.5224409239   -1.3075952514   -2.1027025423
H       -0.6087849255    0.2733709681   -1.2651905505
C       -0.1277263758    0.3039200501   -0.3149924464
C        0.3412999945    0.3032611102    0.7993862234
C        0.8538858700    0.3176316060    2.0593302233
N        1.2841243488    0.3377724070    3.1469599309
30   
Iteration 12 Energy -1011.88629389
H       -0.8854594092   -3.4513422611   -2.7421312537
C       -0.6126615639   -3.5900956879   -1.7238972449
C       -0.3120778975   -3.7325728978   -0.5625085708
C        0.0413034359   -3.8746912721    0.7433899925
N        0.3659069818   -3.9898138053    1.8612622529
H        3.0378357188    0.7496224426   -2.5305892899
C        2.7447080980    1.7435737411   -2.2589726863
C        2.4223920022    2.8499098110   -1.8911426008
C        2.0639631619    4.0879956902   -1.4543295040
N        1.7554850781    5.1495034448   -1.0713441964
H       -1.0871836328    2.5122705718    4.5337691428
C       -1.6668152470    2.3254712992    3.6624141949
C       -2.3119028107    2.1002310583    2.6661032706
C       -3.0196557212    1.8176781637    1.5387566358
N       -3.6187873066    1.5596395012    0.5680371747
H       -4.2072720361   -2.6121550543    2.5613627210
C       -3.8902125823   -2.2426445569    1.6162255010
C       -3.5252450324   -1.8214020243    0.5447838798
C       -3.0593452660   -1.3632488226   -0.6493476540
N       -2.6213596629   -0.9870713978   -1.6664296655
H        3.1685414930   -3.6852310550    2.0529401387
C        3.3271322911   -3.1676609617    1.1371665585
C        3.4566742315   -2.5731809065    0.0932869582
C        3.5529773754   -1.8783097045   -1.0710275470
N        3.6098757324   -1.2600736803   -2.0611582605
H       -0.5944197673    0.3007160398   -1.2906328230
C       -0.1274925994    0.3238031954   -0.3336182414
C        0.3266776931    0.3066600813    0.7870258930
C        0.8120914371    0.2972482710    2.0590047035
N        1.2113258417    0.2961706270    3.1586005059
30   
Iteration 13 Energy -1011.88689316
H       -0.9906833286   -3.4348167201   -2.6953310371
C       -0.6560880747   -3.5900135426   -1.6982488879
C       -0.2969477434   -3.7675912585   -0.5585415103
C        0.1146899992   -3.9502599352    0.7247187447
N        0.4870289254   -4.1026510261    1.8231130828
H        3.0847980521    0.7785446415   -2.4562724877
C        2.7808610651    1.7806671808   -2.2282184310
C        2.4533870872    2.9038495471   -1.9207661783
C        2.0916995696    4.1670003060   -1.5665477343
N        1.7788007432    5.2528687739   -1.2636399793
H       -1.0828145582    2.5952876801    4.5605368318
C       -1.6531158866    2.3826155696    3.6889687599
C       -2.3019588388    2.1297867142    2.7018017894
C       -3.0230793793    1.8188450568    1.5904493322
N       -3.6396648029    1.5410977124    0.6362497308
H       -4.4044601504   -2.6606363390    2.5132381104
C       -4.0188223037   -2.2811192273    1.5981177803
C       -3.5988632171   -1.8522137301    0.5501379402
C       -3.0838648494   -1.4001663185   -0.6260986236
N       -2.6218182459   -1.0400047273   -1.6383573933
H        3.1819237230   -3.7879232727    1.9991379227
C        3.3407010650   -3.2150610930    1.1172692104
C        3.4793058005   -2.5884867741    0.0936042601
C        3.6045173297   -1.8524957664   -1.0418412550
N        3.6948472491   -1.1993262605   -2.0066204201
H       -0.5590064743    0.3346816699   -1.3036375684
C       -0.1057401331    0.3527774380   -0.3406193909
C        0.3382594619    0.3217633778    0.7836673298
C        0.7974638274    0.2889505255    2.0653199882
N        1.1656441362    0.2650296054    3.1754100516
30   
Iteration 14 Energy -1011.88751227
H       -1.1028637606   -3.4029895354   -2.6321380339
C       -0.7081557079   -3.5947592359   -1.6639058867
C       -0.2880237908   -3.8192510953   -0.5536710787
C        0.1870246463   -4.0547515201    0.6984328004
N        0.6116208744   -4.2528607700    1.7702392271
H        3.1474154677    0.8274268434   -2.3663430445
C        2.8264991195    1.8363198440   -2.1966250795
C        2.4903697698    2.9748282703   -1.9638618396
C        2.1235650064    4.2591986660   -1.7039495144
N        1.8088293565    5.3648946294   -1.4865843488
H       -1.0750999392    2.6928133752    4.5842307630
C       -1.6426187981    2.4487251746    3.7190286367
C       -2.2951905705    2.1606000516    2.7440693928
C       -3.0254786148    1.8118218956    1.6498332265
N       -3.6529699280    1.5022430964    0.7125459918
H       -4.6291483278   -2.7048940708    2.4521500708
C       -4.1789477455   -2.3181854839    1.5701156078
C       -3.6950599866   -1.8823581451    0.5530142502
C       -3.1197475803   -1.4338681439   -0.5960330929
N       -2.6130235993   -1.0829357823   -1.5899411274
H        3.2051101552   -3.8937022208    1.9399665344
C        3.3781092232   -3.2738998428    1.0933154464
C        3.5251077773   -2.6076355594    0.0962479991
C        3.6678737075   -1.8241174479   -1.0043838228
N        3.7759222460   -1.1307249471   -1.9387361316
H       -0.5281584678    0.3647484520   -1.3130862781
C       -0.0891923890    0.3747839110   -0.3435455282
C        0.3447486943    0.3317747160    0.7841689354
C        0.7819369263    0.2802076430    2.0727155101
N        1.1265462927    0.2375470167    3.1897303859
30   
Iteration 15 Energy -1011.88928617
H       -1.3648520072   -3.2821635333   -2.3916678578
C       -0.8351241995   -3.6131112662   -1.5317186281
C       -0.2758922893   -3.9964631901   -0.5317074026
C        0.3438549145   -4.4114994949    0.6044956896
N        0.8850673064   -4.7628627588    1.5800565116
H        3.3171295538    1.0092778000   -2.1442085607
C        2.9551542318    2.0194237191   -2.1292512641
C        2.5974376244    3.1746917801   -2.0943855266
C        2.2187660977    4.4816275973   -2.0791940952
N        1.9030007577    5.6082317248   -2.0790596003
H       -1.0503895685    2.9306051293    4.6238102826
C       -1.6242465681    2.6123331608    3.7870915769
C       -2.2928542004    2.2408547657    2.8520326558
C       -3.0507124149    1.8029628075    1.8091462535
N       -3.7068456063    1.4154933371    0.9213724734
H       -5.2117504963   -2.7888777842    2.2565178892
C       -4.6263170969   -2.3925018791    1.4625885308
C       -3.9956018156   -1.9469840250    0.5339106763
C       -3.2807381793   -1.5132664047   -0.5391156421
N       -2.6646518116   -1.1879092053   -1.4783502937
H        3.3088197399   -4.1433260823    1.7711148611
C        3.5210830683   -3.4146877007    1.0258689168
C        3.6763722264   -2.6375617347    0.1138445763
C        3.8416912266   -1.7268751478   -0.8797998273
N        3.9704451174   -0.9261105201   -1.7209969208
H       -0.4663163512    0.3950512003   -1.2938084035
C       -0.0491041678    0.3960694922   -0.3154505593
C        0.3857302754    0.3491205789    0.8112707447
C        0.8031748731    0.2814655363    2.1048912991
N        1.1246698304    0.2179917624    3.2277015964
30   
Iteration 16 Energy -1011.89109178
H       -1.5312126143   -3.1578572611   -2.0832532782
C       -0.9194583595   -3.6507744396   -1.3669991928
C       -0.2650047277   -4.1953649276   -0.5095828077
C        0.4652835481   -4.7883870730    0.4712493678
N        1.0989951359   -5.2873675139    1.3183207178
H        3.4452445899    1.2260911008   -1.9411703958
C        3.0727170250    2.2242608167   -2.0736873230
C        2.7093094662    3.3681487600   -2.2278386692
C        2.3287943073    4.6589287345   -2.4330636334
N        2.0173850169    5.7707163543   -2.6234190123
H       -1.0138247990    3.1356203868    4.6228472638
C       -1.6091246914    2.7481956361    3.8313165596
C       -2.2962595087    2.2986975484    2.9451378010
C       -3.0740874796    1.7740078230    1.9581228975
N       -3.7453094921    1.3086682247    1.1203160739
H       -5.7354329812   -2.8209815762    2.0596557530
C       -5.0595278661   -2.4297960993    1.3382432564
C       -4.3132693039   -1.9859559107    0.4988043534
C       -3.4760700784   -1.5640166023   -0.4862420228
N       -2.7514099790   -1.2543581160   -1.3503185889
H        3.4137852590   -4.3424662526    1.5966176288
C        3.6658028866   -3.5362504582    0.9480631101
C        3.8263478071   -2.6534563059    0.1383222245
C        3.9896555989   -1.6261079524   -0.7350434842
N        4.1068496609   -0.7256802047   -1.4703273403
H       -0.4295072950    0.3936558319   -1.2535967714
C       -0.0211045329    0.3943038019   -0.2715638790
C        0.4237718638    0.3614832247    0.8515365687
C        0.8505483535    0.3036198229    2.1423427570
N        1.1831132790    0.2434221863    3.2622100275
30   
Iteration 17 Energy -1011.89310646
H       -1.5536709576   -3.0285384480   -1.6752597149
C       -0.9305110280   -3.7229653909   -1.1612019419
C       -0.2365324407   -4.4457426467   -0.4856559369
C        0.5630196367   -5.2199290447    0.2949777048
N        1.2627630083   -5.8607597642    0.9792682594
H        3.5616204275    1.4657599676   -1.7661003734
C        3.2051921619    2.4388365859   -2.0441369274
C        2.8426805827    3.5448190547   -2.3762290168
C        2.4581975205    4.7909844225   -2.7696109907
N        2.1452071917    5.8649035532   -3.1137343012
H       -0.9515883681    3.2929436699    4.5610087594
C       -1.5920672045    2.8438603316    3.8404022076
C       -2.3093338602    2.3253147530    3.0181534883
C       -3.1079774298    1.7215929786    2.0949399527
N       -3.7864074377    1.1837237731    1.3081248595
H       -6.2289688597   -2.7925945535    1.8816125975
C       -5.5080478699   -2.4206299586    1.1946259719
C       -4.6837404456   -1.9864751222    0.4265052449
C       -3.7563195023   -1.5638755317   -0.4730334957
N       -2.9444246120   -1.2474478115   -1.2530148781
H        3.5098026149   -4.5000320608    1.3984965997
C        3.7911722846   -3.6310058418    0.8468872001
C        3.9570302150   -2.6397830105    0.1744451571
C        4.0962974428   -1.4965201846   -0.5494240344
N        4.1744998721   -0.4987459514   -1.1528982126
H       -0.4374209890    0.3276362092   -1.1531071402
C       -0.0089037993    0.3491943272   -0.1798455173
C        0.4763518167    0.3683463811    0.9263945460
C        0.9714664494    0.3696802854    2.1936516725
N        1.3776136763    0.3584485094    3.2907582709
30   
Iteration 18 Energy -1011.89434566
H       -1.5154876994   -2.9881104363   -1.6709775132