3    
Iteration 0 Energy -75.96097198
O       -0.0000000000    0.0000000000    0.0656385500
H        0.0000000000   -0.7574807400   -0.5208657000
H        0.0000000000    0.7574807400   -0.5208657000
3    
Iteration 1 Energy -75.96133177
O       -0.0000000000   -0.0000000000    0.0591603763
H       -0.0000000000   -0.7476071643   -0.5176266132
H       -0.0000000000    0.7476071643   -0.5176266132
3    
Iteration 2 Energy -75.96133846
O       -0.0000000000   -0.0000000000    0.0573897669
H       -0.0000000000   -0.7505777712   -0.5167413085
H       -0.0000000000    0.7505777712   -0.5167413085
3    
Iteration 3 Energy -75.96133851
O       -0.0000000000   -0.0000000000    0.0575657495
H       -0.0000000000   -0.7503480596   -0.5168292997
H       -0.0000000000    0.7503480596   -0.5168292997
3    
Iteration 4 Energy -75.96133851
O       -0.0000000000   -0.0000000000    0.0575643777
H       -0.0000000000   -0.7503468954   -0.5168286138
H       -0.0000000000    0.7503468954   -0.5168286138
3    
Iteration 5 Energy -75.96133851
O       -0.0000000000   -0.0000000000    0.0575644553
H       -0.0000000000   -0.7503469378   -0.5168286526
H       -0.0000000000    0.7503469378   -0.5168286526
