3    
Climbing Image - Chain 38 Image 4 Energy   -92.2460428460 (+67.797 kcal/mol) RMSGrad 0.030 eV/Ang
C       -0.0376459548   -0.6460729033    0.0000000000
N       -0.6838786282    0.3448927113   -0.0000000000
H        0.7215245831    0.3011801921    0.0000000000
