304  
Iteration 0 Energy -0.50946249
N       -8.9010000000    4.1270000000   -0.5550000000
C       -8.6080000000    3.1350000000   -1.6180000000
C       -7.1170000000    2.9640000000   -1.8970000000
O       -6.6340000000    1.8490000000   -1.7580000000
C       -9.4370000000    3.3960000000   -2.8890000000
C      -10.9150000000    3.1300000000   -2.6110000000
O      -11.2690000000    2.7000000000   -1.5240000000
N      -11.8060000000    3.4060000000   -3.5430000000
H       -8.3300000000    3.9570000000    0.2610000000
H       -8.7400000000    5.0680000000   -0.8890000000
H       -9.8770000000    4.0410000000   -0.2930000000
H       -8.9300000000    2.1620000000   -1.2390000000
H       -9.3100000000    4.4170000000   -3.1930000000
H       -9.1080000000    2.7190000000   -3.6790000000
H      -11.5720000000    3.7910000000   -4.4440000000
H      -12.7570000000    3.1830000000   -3.2940000000
N       -6.3790000000    4.0310000000   -2.2280000000
C       -4.9230000000    4.0020000000   -2.4520000000
C       -4.1360000000    3.1870000000   -1.4040000000
O       -3.3910000000    2.2740000000   -1.7600000000
C       -4.4110000000    5.4500000000   -2.6190000000
C       -4.7950000000    6.4500000000   -1.4950000000
C       -3.6120000000    6.8030000000   -0.5990000000
C       -5.3510000000    7.7480000000   -2.0840000000
H       -6.8210000000    4.9230000000   -2.3940000000
H       -4.7500000000    3.4940000000   -3.4030000000
H       -3.3400000000    5.4140000000   -2.6720000000
H       -4.8130000000    5.8170000000   -3.5640000000
H       -5.5680000000    6.0220000000   -0.8580000000
H       -3.2070000000    5.9050000000   -0.1460000000
H       -2.8410000000    7.3040000000   -1.1830000000
H       -3.9290000000    7.4770000000    0.1970000000
H       -4.6070000000    8.2090000000   -2.7360000000
H       -6.2550000000    7.5440000000   -2.6570000000
H       -5.5920000000    8.4450000000   -1.2810000000
N       -4.3540000000    3.4550000000   -0.1110000000
C       -3.6900000000    2.7380000000    0.9810000000
C       -4.1020000000    1.2560000000    1.0740000000
O       -3.2910000000    0.4090000000    1.4420000000
C       -3.9640000000    3.4720000000    2.3020000000
C       -2.8240000000    3.3390000000    3.2900000000
C       -2.7460000000    2.2170000000    4.1380000000
C       -1.8200000000    4.3260000000    3.3320000000
C       -1.6570000000    2.0760000000    5.0180000000
C       -0.7250000000    4.1850000000    4.2050000000
C       -0.6390000000    3.0530000000    5.0430000000
O        0.4330000000    2.8810000000    5.8610000000
H       -4.9340000000    4.2450000000    0.1200000000
H       -2.6150000000    2.7680000000    0.7960000000
H       -4.1170000000    4.5130000000    2.0910000000
H       -4.8860000000    3.0960000000    2.7500000000
H       -3.5130000000    1.4560000000    4.1010000000
H       -1.8770000000    5.2000000000    2.6950000000
H       -1.5760000000    1.2210000000    5.6690000000
H        0.0330000000    4.9520000000    4.2330000000
H        1.1870000000    3.3950000000    5.5670000000
N       -5.3420000000    0.9250000000    0.6890000000
C       -5.8570000000   -0.4490000000    0.6130000000
C       -5.0890000000   -1.2210000000   -0.4700000000
O       -4.6210000000   -2.3340000000   -0.2260000000
C       -7.3860000000   -0.4660000000    0.3430000000
C       -8.1970000000    0.5400000000    1.1970000000
C       -7.9590000000   -1.8840000000    0.5010000000
C       -8.0190000000    0.4120000000    2.7150000000
H       -5.9060000000    1.6560000000    0.2830000000
H       -5.6700000000   -0.9410000000    1.5680000000
H       -7.5540000000   -0.1920000000   -0.6970000000
H       -7.9000000000    1.5310000000    0.9120000000
H       -9.2570000000    0.4240000000    0.9640000000
H       -7.5090000000   -2.5550000000   -0.2320000000
H       -7.7590000000   -2.2710000000    1.5010000000
H       -9.0360000000   -1.8710000000    0.3320000000
H       -8.3060000000   -0.5850000000    3.0490000000
H       -6.9830000000    0.6060000000    2.9950000000
H       -8.6560000000    1.1440000000    3.2130000000
N       -4.9070000000   -0.6010000000   -1.6450000000
C       -4.1220000000   -1.1670000000   -2.7430000000
C       -2.6290000000   -1.3210000000   -2.3900000000
O       -1.9860000000   -2.2400000000   -2.8840000000
C       -4.2920000000   -0.3130000000   -4.0130000000
C       -4.2440000000   -1.1710000000   -5.2900000000
C       -5.5760000000   -1.8600000000   -5.5850000000
O       -5.7690000000   -3.0440000000   -5.3350000000
N       -6.5320000000   -1.1460000000   -6.1520000000
H       -5.3270000000    0.3180000000   -1.7630000000
H       -4.5170000000   -2.1620000000   -2.9400000000
H       -5.2380000000    0.1910000000   -3.9690000000
H       -3.4920000000    0.4290000000   -4.0530000000
H       -3.9930000000   -0.5390000000   -6.1200000000
H       -3.4580000000   -1.9230000000   -5.2050000000
H       -6.3890000000   -0.1840000000   -6.4080000000
H       -7.3920000000   -1.6350000000   -6.3350000000
N       -2.0740000000   -0.4590000000   -1.5280000000
C       -0.7160000000   -0.6310000000   -0.9930000000
C       -0.6310000000   -1.7660000000    0.0440000000
O        0.2950000000   -2.5790000000   -0.0040000000
C       -0.2210000000    0.7030000000   -0.4170000000
C        1.1480000000    0.6520000000    0.1940000000
C        2.3190000000    0.6640000000   -0.4820000000
C        1.5080000000    0.5640000000    1.6060000000
N        3.3710000000    0.5600000000    0.4110000000
C        2.9280000000    0.5150000000    1.7100000000
C        0.7790000000    0.5240000000    2.8120000000
C        3.5990000000    0.4450000000    2.9380000000
C        1.4390000000    0.4330000000    4.0530000000
C        2.8420000000    0.4070000000    4.1200000000
H       -2.6240000000    0.3430000000   -1.2420000000
H       -0.0520000000   -0.9080000000   -1.8130000000
H       -0.2060000000    1.4250000000   -1.2110000000
H       -0.9210000000    1.0440000000    0.3440000000
H        2.4120000000    0.7330000000   -1.5580000000
H        4.3600000000    0.5360000000    0.1560000000
H       -0.2990000000    0.5710000000    2.7730000000
H        4.6790000000    0.4180000000    2.9610000000
H        0.8620000000    0.4000000000    4.9660000000
H        3.3340000000    0.3600000000    5.0810000000
N       -1.6000000000   -1.8600000000    0.9670000000
C       -1.6410000000   -2.9320000000    1.9630000000
C       -1.8470000000   -4.3190000000    1.3420000000
O       -1.1440000000   -5.2480000000    1.7420000000
C       -2.7100000000   -2.6450000000    3.0330000000
C       -2.3010000000   -1.5790000000    4.0690000000
C       -3.4750000000   -1.3230000000    5.0180000000
C       -1.0930000000   -2.0070000000    4.9140000000
H       -2.3160000000   -1.1370000000    0.9940000000
H       -0.6660000000   -2.9780000000    2.4450000000
H       -3.6000000000   -2.3080000000    2.5370000000
H       -2.9210000000   -3.5710000000    3.5720000000
H       -2.0610000000   -0.6490000000    3.5600000000
H       -4.3430000000   -0.9920000000    4.4490000000
H       -3.7250000000   -2.2370000000    5.5600000000
H       -3.2110000000   -0.5490000000    5.7390000000
H       -1.2700000000   -2.9890000000    5.3540000000
H       -0.1950000000   -2.0450000000    4.3000000000
H       -0.9220000000   -1.2860000000    5.7120000000
N       -2.7530000000   -4.4810000000    0.3600000000
C       -3.0240000000   -5.7910000000   -0.2690000000
C       -1.7960000000   -6.4270000000   -0.9370000000
O       -1.7190000000   -7.6480000000   -1.0300000000
C       -4.2240000000   -5.6970000000   -1.2320000000
C       -3.9300000000   -5.0090000000   -2.5770000000
C       -3.6820000000   -5.9860000000   -3.7360000000
C       -3.4940000000   -5.1990000000   -5.0390000000
N       -4.5630000000   -5.4830000000   -6.0230000000
H       -3.3210000000   -3.6750000000    0.0970000000
H       -3.3090000000   -6.4780000000    0.5290000000
H       -4.5650000000   -6.6940000000   -1.4360000000
H       -5.0190000000   -5.1430000000   -0.7310000000
H       -4.7690000000   -4.3900000000   -2.8300000000
H       -3.0620000000   -4.3680000000   -2.4690000000
H       -2.7990000000   -6.5620000000   -3.5360000000
H       -4.5240000000   -6.6740000000   -3.8180000000
H       -3.5020000000   -4.1500000000   -4.8130000000
H       -2.5110000000   -5.4390000000   -5.4570000000
H       -4.6210000000   -6.4740000000   -6.2110000000
H       -5.4420000000   -5.1240000000   -5.6570000000
H       -4.3820000000   -4.9830000000   -6.8810000000
N       -0.8280000000   -5.6070000000   -1.3550000000
C        0.4660000000   -6.0160000000   -1.9050000000
C        1.4810000000   -6.4640000000   -0.8320000000
O        2.5450000000   -6.9710000000   -1.1940000000
C        1.0330000000   -4.8390000000   -2.7240000000
C        0.6720000000   -4.9060000000   -4.2100000000
O       -0.5320000000   -5.0510000000   -4.5220000000
O        1.6270000000   -4.8150000000   -5.0170000000
H       -1.0100000000   -4.6160000000   -1.2910000000
H        0.3190000000   -6.8670000000   -2.5740000000
H        0.6440000000   -3.9240000000   -2.3200000000
H        2.1160000000   -4.8370000000   -2.6500000000
N        1.1850000000   -6.2780000000    0.4640000000
C        2.0600000000   -6.6180000000    1.5930000000
C        2.6280000000   -5.4120000000    2.3530000000
O        3.4960000000   -5.5940000000    3.2080000000
H        0.2650000000   -5.9080000000    0.6930000000
H        1.4860000000   -7.2140000000    2.3040000000
H        2.8970000000   -7.2280000000    1.2520000000
N        2.1720000000   -4.1870000000    2.0550000000
C        2.6260000000   -2.9670000000    2.7230000000
C        4.1570000000   -2.8020000000    2.6540000000
O        4.7100000000   -2.8290000000    1.5510000000
H        1.4810000000   -4.0890000000    1.3190000000
H        2.1640000000   -2.1090000000    2.2370000000
H        2.2800000000   -2.9970000000    3.7530000000
N        4.8710000000   -2.6510000000    3.7940000000
C        6.3330000000   -2.5330000000    3.8060000000
C        7.0580000000   -3.7290000000    3.1650000000
O        8.1390000000   -3.5620000000    2.6010000000
C        6.7400000000   -2.3870000000    5.2790000000
C        5.4600000000   -1.9520000000    5.9870000000
C        4.3620000000   -2.6150000000    5.1600000000
H        6.6110000000   -1.6260000000    3.2670000000
H        7.0910000000   -3.3230000000    5.6700000000
H        7.5310000000   -1.6470000000    5.4030000000
H        5.4430000000   -2.3020000000    7.0010000000
H        5.3580000000   -0.8670000000    5.9290000000
H        4.1730000000   -3.6090000000    5.5160000000
H        3.4400000000   -2.0420000000    5.2460000000
N        6.4630000000   -4.9290000000    3.2050000000
C        7.0490000000   -6.1790000000    2.7040000000
C        6.8970000000   -6.3690000000    1.1850000000
O        7.0250000000   -7.4880000000    0.6970000000
C        6.4580000000   -7.3710000000    3.4720000000
O        6.7630000000   -7.2640000000    4.8500000000
H        5.5350000000   -4.9990000000    3.6130000000
H        8.1210000000   -6.1590000000    2.9030000000
H        5.3930000000   -7.3820000000    3.3440000000
H        6.8800000000   -8.3020000000    3.0930000000
H        7.7070000000   -7.3940000000    4.9700000000
N        6.6370000000   -5.2900000000    0.4340000000
C        6.3890000000   -5.3150000000   -1.0150000000
C        7.3320000000   -4.4050000000   -1.8230000000
O        7.0820000000   -4.1230000000   -2.9930000000
C        4.9140000000   -4.9930000000   -1.2650000000
O        4.4310000000   -5.7430000000   -2.3580000000
H        6.5090000000   -4.4150000000    0.9300000000
H        6.5620000000   -6.3290000000   -1.3780000000
H        4.3440000000   -5.2360000000   -0.3890000000
H        4.7780000000   -3.9340000000   -1.4570000000
H        3.7140000000   -6.3240000000   -1.9870000000
N        8.4190000000   -3.9200000000   -1.2020000000
C        9.4510000000   -3.1160000000   -1.8700000000
C        8.9840000000   -1.7250000000   -2.3160000000
O        9.5390000000   -1.1770000000   -3.2670000000
H        8.5730000000   -4.2100000000   -0.2460000000
H       10.2970000000   -2.9870000000   -1.1940000000
H        9.8050000000   -3.6520000000   -2.7520000000
N        7.9560000000   -1.1640000000   -1.6600000000
C        7.2890000000    0.0840000000   -2.0540000000
C        6.8550000000    0.9160000000   -0.8290000000
O        6.2220000000    0.3660000000    0.0760000000
C        6.1100000000   -0.2430000000   -2.9940000000
C        5.0460000000   -1.1710000000   -2.3780000000
C        3.9230000000   -1.5920000000   -3.3380000000
N        4.2510000000   -2.8110000000   -4.1000000000
C        4.8590000000   -2.9140000000   -5.2740000000
N        5.2890000000   -1.8640000000   -5.9370000000
N        5.0350000000   -4.0950000000   -5.8090000000
H        7.5790000000   -1.6760000000   -0.8740000000
H        8.0090000000    0.6630000000   -2.6300000000
H        5.6340000000    0.6780000000   -3.2690000000
H        6.5240000000   -0.7200000000   -3.8800000000
H        5.5380000000   -2.0590000000   -2.0310000000
H        4.5790000000   -0.6520000000   -1.5490000000
H        3.0330000000   -1.7740000000   -2.7660000000
H        3.6690000000   -0.7650000000   -4.0030000000
H        3.9630000000   -3.6940000000   -3.6980000000
H        5.1500000000   -0.9620000000   -5.5210000000
H        5.7610000000   -1.9620000000   -6.8150000000
H        4.6490000000   -4.8940000000   -5.3270000000
H        5.5080000000   -4.2050000000   -6.6840000000
N        7.1560000000    2.2300000000   -0.7800000000
C        6.7820000000    3.0880000000    0.3450000000
C        5.2610000000    3.3310000000    0.3950000000
O        4.5860000000    3.1650000000   -0.6240000000
C        7.5540000000    4.3940000000    0.1190000000
C        7.6770000000    4.4740000000   -1.4010000000
C        7.8200000000    3.0100000000   -1.8160000000
H        7.1070000000    2.6280000000    1.2790000000
H        7.0090000000    5.2340000000    0.5050000000
H        8.5480000000    4.3080000000    0.5610000000
H        6.8000000000    4.9140000000   -1.8360000000
H        8.5400000000    5.0660000000   -1.7070000000
H        7.3490000000    2.8440000000   -2.7660000000
H        8.8760000000    2.7390000000   -1.8550000000
N        4.7100000000    3.7390000000    1.5550000000
C        3.2870000000    4.0310000000    1.6860000000
C        2.9010000000    5.3050000000    0.9130000000
O        3.6840000000    6.2560000000    0.8710000000
C        3.0350000000    4.1900000000    3.1870000000
C        4.3850000000    4.6550000000    3.7290000000
C        5.3930000000    3.9490000000    2.8230000000
H        2.7190000000    3.1810000000    1.3160000000
H        2.2740000000    4.9240000000    3.3720000000
H        2.7810000000    3.2230000000    3.6180000000
H        4.4820000000    5.7210000000    3.6540000000
H        4.5180000000    4.3770000000    4.7750000000
H        6.2620000000    4.5620000000    2.6820000000
H        5.6620000000    2.9830000000    3.2530000000
N        1.6880000000    5.3600000000    0.3360000000
C        1.1850000000    6.5430000000   -0.3530000000
C        0.7150000000    7.6070000000    0.6550000000
O       -0.1240000000    7.3240000000    1.5130000000
C        0.0480000000    6.0140000000   -1.2290000000
C       -0.5190000000    4.8520000000   -0.4120000000
C        0.7160000000    4.2750000000    0.2720000000
H        1.9610000000    6.9660000000   -0.9910000000
H       -0.6970000000    6.7700000000   -1.3890000000
H        0.4630000000    5.6300000000   -2.1620000000
H       -1.2320000000    5.2010000000    0.3100000000
H       -1.0190000000    4.1140000000   -1.0410000000
H        0.4700000000    3.9370000000    1.2600000000
H        1.1210000000    3.4610000000   -0.3290000000
N        1.2710000000    8.8220000000    0.5490000000
C        0.8520000000   10.0270000000    1.2850000000
C       -0.4060000000   10.6570000000    0.6830000000
O       -0.3870000000   10.9160000000   -0.5400000000
C        1.9720000000   11.0710000000    1.2840000000
O        3.1200000000   10.5410000000    1.9110000000
O       -1.3410000000   10.9030000000    1.4730000000
H        1.9690000000    8.9610000000   -0.1650000000
H        0.6010000000    9.7600000000    2.3100000000
H        2.2100000000   11.3380000000    0.2720000000
H        1.6360000000   11.9590000000    1.8240000000
H        2.8310000000   10.0400000000    2.6760000000
304  
Iteration 1 Energy -0.52768994
N       -8.9849663033    4.1367350186   -0.5521567301
C       -8.6510606853    3.1927813601   -1.6485500678
C       -7.1571401405    3.0455046442   -1.9005523100
O       -6.6926563099    1.9256238911   -1.7593703555
C       -9.4499962649    3.4563123437   -2.9370980781
C      -10.9224459252    3.2273619224   -2.6353919799
O      -11.1836453424    2.9327517400   -1.4814568296
N      -11.8570242985    3.4118920978   -3.5412229848
H       -8.4384028133    3.9298963581    0.2731982455
H       -8.8270104665    5.0950334733   -0.8308173520
H       -9.9669540757    4.0236755321   -0.3208664911
H       -8.9738044724    2.2088119432   -1.2982394699
H       -9.3117339411    4.4742314338   -3.2934664488
H       -9.1273631545    2.7538038544   -3.7076643925
H      -11.6241307556    3.6718237658   -4.4857290663
H      -12.8130334778    3.2440710617   -3.2597033626
N       -6.4065189784    4.1078100178   -2.2181148624
C       -4.9476065340    4.0463199249   -2.4463333381
C       -4.1577868856    3.2351467874   -1.3946548923
O       -3.4722252277    2.2890553455   -1.7735782567
C       -4.4177497752    5.4871388674   -2.6199294100
C       -4.8148157206    6.4878567198   -1.5016334733
C       -3.6533889648    6.8559464889   -0.5920216809
C       -5.3752657048    7.7747849579   -2.0983182957
H       -6.8364854115    5.0027555589   -2.3964567213
H       -4.7800825872    3.5282429281   -3.3935328658
H       -3.3327986296    5.4475272792   -2.7035546675
H       -4.8064368869    5.8543329648   -3.5709722389
H       -5.5931288049    6.0527629557   -0.8741762872
H       -3.2370421133    5.9707931534   -0.1259825244
H       -2.8799474940    7.3699840437   -1.1634477787
H       -3.9847188927    7.5332672581    0.1968925195
H       -4.6217608052    8.2443069435   -2.7343813719
H       -6.2674594327    7.5726789806   -2.6875118759
H       -5.6282746759    8.4724764606   -1.2979480530
N       -4.3574426127    3.4970481692   -0.0991138069
C       -3.6806692257    2.7581847977    0.9755145742
C       -4.1072683736    1.2790964565    1.0814116198
O       -3.3189550919    0.4155552197    1.4491899040
C       -3.9154148508    3.4991751056    2.2995523093
C       -2.7645611806    3.3535164830    3.2705373738
C       -2.6854842587    2.2341064012    4.1216448723
C       -1.7580402625    4.3394294312    3.3063059196
C       -1.6091693098    2.1110349046    5.0209963098
C       -0.6845104366    4.2129272224    4.2057992249
C       -0.6081778131    3.1028476316    5.0724511770
O        0.4229808474    2.9813842463    5.9472912847
H       -4.8871655243    4.3125239525    0.1575324325
H       -2.6080065978    2.7688521235    0.7715974608
H       -4.0490184156    4.5620194950    2.1078040926
H       -4.8333364958    3.1375798117    2.7664013419
H       -3.4462580876    1.4678027469    4.0885319539
H       -1.8063319642    5.2099493014    2.6622850444
H       -1.5372921538    1.2628687459    5.6835441271
H        0.0686754707    4.9854188962    4.2449901603
H        1.1063222295    3.6310404023    5.7781699391
N       -5.3462432127    0.9542966498    0.6936206120
C       -5.8405848981   -0.4329598074    0.6269663412
C       -5.0897703430   -1.2076961961   -0.4656244504
O       -4.6566017065   -2.3358507272   -0.2428535567
C       -7.3682101429   -0.4716105817    0.3662670145
C       -8.1908555243    0.5238841881    1.2201118735
C       -7.9149250836   -1.8972918247    0.5348825003
C       -8.0186138786    0.3858261210    2.7385620130
H       -5.9129737076    1.6774138183    0.2887383419
H       -5.6422123256   -0.9265081795    1.5800613450
H       -7.5420605130   -0.2043535159   -0.6748199171
H       -7.9155797521    1.5372711680    0.9414564758
H       -9.2486248058    0.3982570995    0.9837180165
H       -7.4533268712   -2.5671863735   -0.1920719522
H       -7.7047624143   -2.2739498990    1.5365981628
H       -8.9931603484   -1.9099995352    0.3693614567
H       -8.3003572471   -0.6160556669    3.0617014723
H       -6.9863000316    0.5841212676    3.0269284654
H       -8.6647515840    1.1076108116    3.2390819815
N       -4.8883761213   -0.5808364801   -1.6322031195
C       -4.1110934810   -1.1485128204   -2.7371918048
C       -2.6165185984   -1.3095311498   -2.3950690475
O       -1.9973042619   -2.2238643383   -2.9219332110
C       -4.2960287904   -0.2899445968   -4.0029139719
C       -4.2260769619   -1.1407028384   -5.2852303245
C       -5.5369163835   -1.8622683532   -5.5958890721
O       -5.7290394987   -3.0483317237   -5.3644000782
N       -6.5082198861   -1.1748877034   -6.1605981604
H       -5.2758433818    0.3466103076   -1.7501890714
H       -4.5046351146   -2.1438717814   -2.9392506121
H       -5.2574456278    0.2186323478   -3.9722706388
H       -3.5097352239    0.4659936002   -4.0390978122
H       -3.9864391284   -0.4890095116   -6.1215336925
H       -3.4231326302   -1.8741509649   -5.2011937734
H       -6.3334056066   -0.2181220182   -6.4088841786
H       -7.3628973181   -1.6604977055   -6.3728765103
N       -2.0480487936   -0.4757339082   -1.5157533632
C       -0.6912626910   -0.6472837490   -0.9761099609
C       -0.5977202073   -1.7879164992    0.0561758293
O        0.3252495335   -2.6025657169    0.0197415961
C       -0.2186548883    0.6900044746   -0.3909145825
C        1.1377719466    0.6473186144    0.2406925184
C        2.3052360929    0.6610179988   -0.4388174139
C        1.4973825522    0.5621404593    1.6563071707
N        3.3476451701    0.5526821995    0.4603511190
C        2.9183534026    0.5094931431    1.7615568738
C        0.7742551363    0.5280581536    2.8664785869
C        3.5947054942    0.4422709054    2.9857783169
C        1.4425057672    0.4440160736    4.1043987775
C        2.8463467198    0.4140104108    4.1727533552
H       -2.5819403980    0.3246012786   -1.2048835994
H       -0.0163462725   -0.9149663205   -1.7910543949
H       -0.2037082184    1.4298418604   -1.1885290740
H       -0.9309815839    1.0246630308    0.3623156615
H        2.4043032487    0.7295457453   -1.5139966062
H        4.3293636360    0.5243312949    0.1894459433
H       -0.3033609580    0.5798457200    2.8365987264
H        4.6744254302    0.4105921985    3.0037167677
H        0.8687325211    0.4204081284    5.0202751577
H        3.3423960153    0.3732190973    5.1322484191
N       -1.5760734622   -1.8942317019    0.9646503703
C       -1.6384403265   -2.9490780261    1.9815437554
C       -1.8618910882   -4.3468394664    1.3924661702
O       -1.2010522302   -5.2796740521    1.8448118933
C       -2.7184052748   -2.6369211574    3.0333629301
C       -2.3198533878   -1.5730147098    4.0724679928
C       -3.5012012645   -1.3379709515    5.0150579178
C       -1.1182529254   -1.9942723691    4.9242841264
H       -2.2883101411   -1.1730984403    0.9826117304
H       -0.6698953773   -2.9981558827    2.4771314060
H       -3.6230632074   -2.3147587270    2.5223736710
H       -2.9385423933   -3.5589496805    3.5742651212
H       -2.0828662814   -0.6385621778    3.5701845609
H       -4.3691955795   -1.0110305730    4.4444728815
H       -3.7419800656   -2.2610690779    5.5438452923
H       -3.2476748242   -0.5702672128    5.7452530578
H       -1.2897522495   -2.9797436168    5.3579467249
H       -0.2146837371   -2.0205874392    4.3173349666
H       -0.9602843623   -1.2744941808    5.7265112876
N       -2.7509348272   -4.5150153724    0.3986531575
C       -3.0312476674   -5.8217496327   -0.2385992259
C       -1.8145391510   -6.4274089880   -0.9537136612
O       -1.7462431834   -7.6400755080   -1.1137667713
C       -4.2510910398   -5.7305822301   -1.1739772744
C       -3.9540052427   -5.0278829349   -2.5071254318
C       -3.6458388497   -6.0082245269   -3.6467020230
C       -3.3318873663   -5.2376016191   -4.9333254461
N       -4.3486768739   -5.4645993531   -5.9832807324
H       -3.3088459646   -3.7114861217    0.1238034334
H       -3.2863484133   -6.5282258460    0.5517988826
H       -4.5937074930   -6.7431403462   -1.3770715847
H       -5.0547691961   -5.2006437418   -0.6602024913
H       -4.8078979414   -4.4153600267   -2.7873813571
H       -3.0988038329   -4.3759697202   -2.3713466432
H       -2.7677189113   -6.6001759200   -3.3968551951
H       -4.4921402198   -6.6843919160   -3.7765142853
H       -3.2793646388   -4.1739984142   -4.7009353710
H       -2.3367329389   -5.5404972031   -5.2772869597
H       -4.4640474009   -6.4521669984   -6.1594867043
H       -5.2200932056   -5.0377921907   -5.6820920280
H       -4.0676026158   -4.9946045699   -6.8307171639
N       -0.8607096993   -5.5877600920   -1.3521295882
C        0.4230594242   -6.0139764977   -1.9142577428
C        1.4138602377   -6.5117836540   -0.8320713267
O        2.4387036965   -7.1213444396   -1.1297260896
C        0.9920349815   -4.8284585994   -2.7339183790
C        0.6641604182   -4.8960845361   -4.2318564753
O       -0.5195085402   -5.0657506618   -4.6111092032
O        1.6303791909   -4.7116044909   -5.0095327646
H       -1.0216027916   -4.5972537196   -1.2598538274
H        0.2611185370   -6.8595406553   -2.5853966583
H        0.6063788528   -3.8925643671   -2.3350755993
H        2.0738523288   -4.7969285780   -2.6431309742
N        1.1323366126   -6.2892605220    0.4577724938
C        2.0298372836   -6.6253538163    1.5745503739
C        2.6169394443   -5.4164567754    2.3199881048
O        3.4855297292   -5.5681601856    3.1800906374
H        0.2280609537   -5.8920990922    0.6873013134
H        1.4648441933   -7.2112451817    2.2987638040
H        2.8595058508   -7.2406498528    1.2234902610
N        2.1647524456   -4.1937111806    2.0118607488
C        2.6270964998   -2.9764318037    2.6851874170
C        4.1584309903   -2.8050221818    2.6161242429
O        4.7256395822   -2.8370018049    1.5195156345
H        1.4757629874   -4.0993833188    1.2763609938
H        2.1696844222   -2.1134633377    2.2048139603
H        2.2838849009   -3.0047329374    3.7168813694
N        4.8681871956   -2.6571055710    3.7587459474
C        6.3304784364   -2.5377675260    3.7695282381
C        7.0521934041   -3.7395913441    3.1373041562
O        8.1232292039   -3.5897015136    2.5514766344
C        6.7309332338   -2.3858861195    5.2453482231
C        5.4496745396   -1.9502049312    5.9533132615
C        4.3553312933   -2.6133396948    5.1214791451
H        6.6106762645   -1.6352906630    3.2249583411
H        7.0624558228   -3.3396879270    5.6522204554
H        7.5231610916   -1.6464084952    5.3687288462
H        5.4279267597   -2.2929345059    6.9854532032
H        5.3497170015   -0.8653702359    5.8973705247
H        4.1769327595   -3.6258797188    5.4781281969
H        3.4353275002   -2.0354940418    5.1996319282
N        6.4538106895   -4.9342804058    3.1988736376
C        7.0449081005   -6.1850374847    2.7008554256
C        6.9066819262   -6.3755309992    1.1815338077
O        7.0678185148   -7.4811328595    0.6747527322
C        6.4632179893   -7.3766982658    3.4747751139
O        6.7580188343   -7.2480393344    4.8542376911
H        5.5348738063   -5.0006899378    3.6237336124
H        8.1158998299   -6.1521193881    2.9000911027
H        5.3844761567   -7.4037824345    3.3391376456
H        6.8903893227   -8.3099956389    3.1052981108
H        7.7008440551   -7.3813744186    4.9798547829
N        6.6360722109   -5.2941930763    0.4399875153
C        6.4128181275   -5.2879846937   -1.0163705124
C        7.3590139990   -4.3713665753   -1.8009277457
O        7.1118887143   -4.0591020420   -2.9647984403
C        4.9580627190   -4.9465336166   -1.3179457063
O        4.6060428717   -5.5681171840   -2.5309803355
H        6.4934824996   -4.4230214422    0.9362878534
H        6.5926616623   -6.2902886565   -1.4083346047
H        4.3135698094   -5.2805059656   -0.5055466583
H        4.8276370842   -3.8745839458   -1.4241626940
H        3.8969786690   -6.2193283372   -2.3089115788
N        8.4429096359   -3.9016919895   -1.1694780782
C        9.4680223192   -3.1031472660   -1.8564954208
C        8.9994237265   -1.7145887524   -2.3125652189
O        9.5250519900   -1.1491060206   -3.2689616083
H        8.6016316502   -4.1923226461   -0.2148395972
H       10.3151914565   -2.9698611173   -1.1846714848
H        9.8135121597   -3.6470695600   -2.7369756737
N        7.9725673326   -1.1591856333   -1.6536020943
C        7.2901607866    0.0839685088   -2.0463196719
C        6.8965882909    0.9241814432   -0.8172698706
O        6.3240431074    0.3549840972    0.1140222223
C        6.0958085863   -0.2592086543   -2.9681515668
C        5.0517091966   -1.2121317749   -2.3478370375
C        3.9194697032   -1.6408210116   -3.2989450919
N        4.2063710255   -2.8768603089   -4.0545949157
C        4.7728380911   -3.0468087387   -5.2349435664
N        5.2515340991   -2.0589725265   -5.9487320403
N        4.8549168612   -4.2462606596   -5.7341189104
H        7.6040609310   -1.6642618941   -0.8593726265
H        7.9917897399    0.6695448155   -2.6389362517
H        5.5993471592    0.6663849052   -3.2531161704
H        6.5053365312   -0.7258017155   -3.8624780184
H        5.5515404332   -2.0999537883   -1.9787428550
H        4.5862708173   -0.7045504917   -1.5118175995
H        3.0341245688   -1.8349658064   -2.6953017695
H        3.6623561826   -0.8189252595   -3.9686233179
H        3.8935299992   -3.7417204661   -3.6274585573
H        5.2063700690   -1.1305901529   -5.5782637126
H        5.6930380972   -2.2457203383   -6.8269320828
H        4.4184946854   -4.9902282601   -5.2072616847
H        5.2938654507   -4.4246149796   -6.6126616234