8    
Iteration 0 Energy -78.79071020
C       -4.1323482652    0.7040762335   -0.0086939580
H       -3.3694111715    0.0616141687   -0.4309896251
H       -4.4486601540    1.4093673643   -0.7664414328
H       -4.9798315196    0.0728466633    0.2315016175
C       -3.6125609105    1.4308328745    1.2600946722
H       -3.3145781648    2.4472278839    1.0335740410
H       -4.3894707594    1.4895275193    2.0133133465
H       -2.7680486982    0.9117121093    1.6948162236
8    
Iteration 1 Energy -78.79018610
C       -4.1304725344    0.7094694255   -0.0129739783
H       -3.3820388658    0.0394612000   -0.4190363964
H       -4.4393832958    1.4120995851   -0.7767433786
H       -4.9853596981    0.0899061859    0.2329264866
C       -3.6067623129    1.4297730049    1.2585121541
H       -3.3398495178    2.4576512641    1.0436293644
H       -4.3853212718    1.4736108907    2.0115605783
H       -2.7561080028    0.9180864088    1.6909736485
8    
Iteration 2 Energy -78.78993827
C       -4.1295947625    0.7093363303   -0.0138168636
H       -3.3901480743    0.0230381333   -0.4091541068
H       -4.4214178540    1.4115707122   -0.7835125877
H       -4.9964103440    0.1038042182    0.2283237700
C       -3.6058440147    1.4305411542    1.2582542177
H       -3.3583611547    2.4646932979    1.0500245522
H       -4.3787265958    1.4581439699    2.0188863677
H       -2.7448148035    0.9289301489    1.6798470082
8    
Iteration 3 Energy -78.78368566
C       -4.1509595550    0.7270789792   -0.0052050122
H       -3.3777796588    0.0569284479   -0.3465268344
H       -4.4130046980    1.4033002239   -0.8478812927
H       -5.0219571045    0.1826580420    0.2482358932
C       -3.6117071301    1.4032097370    1.2663321418
H       -3.3894081053    2.4242399960    0.9989240171
H       -4.3664827552    1.3746162839    2.0071102161
H       -2.6933983758    0.9582399637    1.7076549341
8    
Iteration 4 Energy -78.78879252
C       -4.1385613934    0.7170165407   -0.0105844315
H       -3.3870688611    0.0322223652   -0.3789948374
H       -4.4128663822    1.4083717491   -0.8137787835
H       -5.0107137429    0.1419182858    0.2356153893
C       -3.6078832059    1.4189859099    1.2617688407
H       -3.3776339380    2.4498106426    1.0298132629
H       -4.3715559566    1.4175225923    2.0159576476
H       -2.7187731971    0.9443025742    1.6889681461
8    
Iteration 5 Energy -78.78965439
C       -4.1329963845    0.7128964207   -0.0130691095
H       -3.3915292416    0.0218174947   -0.3934482160
H       -4.4133409228    1.4101657579   -0.7986885736
H       -5.0050933014    0.1240458401    0.2302782556
C       -3.6059234215    1.4257565779    1.2596419855
H       -3.3722218277    2.4605463203    1.0436588606
H       -4.3737143513    1.4366119010    2.0191773388
H       -2.7303926417    0.9382577159    1.6812671615
8    
Iteration 6 Energy -78.78987265
C       -4.1321862592    0.7069302215   -0.0119994965
H       -3.3979505035    0.0072811758   -0.3920747140
H       -4.3923583053    1.4076700990   -0.7965645611
H       -5.0179800815    0.1279328747    0.2188980505
C       -3.6093318666    1.4308094677    1.2601532582
H       -3.3823340303    2.4692565809    1.0523816110
H       -4.3669072944    1.4305830394    2.0342728858
H       -2.7262686604    0.9496102731    1.6637812517
8    
Iteration 7 Energy -78.78991637
C       -4.1339518129    0.7026271941   -0.0092929042
H       -3.4011306212   -0.0008021042   -0.3856577099
H       -4.3713640116    1.4048054498   -0.7981268891
H       -5.0323505738    0.1372103463    0.2107038532
C       -3.6141564096    1.4327914527    1.2614727036
H       -3.3924415318    2.4726574372    1.0540811382
H       -4.3606639559    1.4184427399    2.0474344368
H       -2.7193062865    0.9623352361    1.6482442186
8    
Iteration 8 Energy -78.78990192
C       -4.1349397158    0.7019327050   -0.0086756529
H       -3.4024741222   -0.0031273561   -0.3826783472
H       -4.3652655026    1.4035320847   -0.8004829730
H       -5.0368443534    0.1415174328    0.2082741382
C       -3.6153200868    1.4327277855    1.2621682547
H       -3.3964209615    2.4731073418    1.0543536416
H       -4.3581608803    1.4134338156    2.0510787998
H       -2.7159416218    0.9669445575    1.6448102909
8    
Iteration 9 Energy -78.78989146
C       -4.1351578386    0.7019363718   -0.0084332577
H       -3.4029408646   -0.0040809270   -0.3811611749
H       -4.3630541911    1.4033928142   -0.8012629117
H       -5.0382350212    0.1434938678    0.2080259225
C       -3.6155890194    1.4325527258    1.2622259103
H       -3.3982640548    2.4732473637    1.0542525314
H       -4.3574947467    1.4112018001    2.0517705784
H       -2.7146305746    0.9683248289    1.6434385459
8    
Iteration 10 Energy -78.78988519
C       -4.1352108105    0.7019865242   -0.0084425878
H       -3.4032998632   -0.0046355685   -0.3806012398
H       -4.3622645031    1.4032631187   -0.8017368278
H       -5.0387405469    0.1443199273    0.2078463745
C       -3.6155745912    1.4324904071    1.2622603953
H       -3.3991008623    2.4733813126    1.0544249502
H       -4.3571269642    1.4103296711    2.0520375203
H       -2.7140392282    0.9689423042    1.6430689091
8    
Iteration 11 Energy -78.78988151
C       -4.1351717734    0.7020644830   -0.0085081812
H       -3.4034990207   -0.0049298932   -0.3804031174
H       -4.3620940765    1.4032426212   -0.8019437356
H       -5.0388093949    0.1446246361    0.2078386600
C       -3.6154696406    1.4324622285    1.2622422372
H       -3.3994659079    2.4734758885    1.0545773862
H       -4.3569993093    1.4100441845    2.0520127297
H       -2.7138211620    0.9690989052    1.6430427162
8    
Iteration 12 Energy -78.78987933
C       -4.1351904665    0.7020764177   -0.0085146948
H       -3.4036349094   -0.0051329563   -0.3802215170
H       -4.3618203188    1.4031927067   -0.8021046241
H       -5.0389906382    0.1449034377    0.2077616736
C       -3.6154629725    1.4324462407    1.2622559787
H       -3.3997533289    2.4735291449    1.0546512986
H       -4.3568610850    1.4097520959    2.0521205194
H       -2.7136187829    0.9693163681    1.6429106194
8    
Iteration 13 Energy -78.78679905
C       -4.1283645694    0.6847773992   -0.0137183868
H       -3.4209426624   -0.0360866934   -0.4096554859
H       -4.3409387163    1.4012397623   -0.7687616304
H       -5.0514923406    0.1094932675    0.1734686572
C       -3.6149622120    1.4529252014    1.2636204652
H       -3.3933657866    2.5003452928    1.0888656309
H       -4.3451264513    1.4471556821    2.0911543712
H       -2.7325279528    0.9720747691    1.6075347999
8    
Iteration 14 Energy -78.78910638
C       -4.1317649019    0.6933833440   -0.0111379135
H       -3.4121674805   -0.0208156958   -0.3949033898
H       -4.3512519510    1.4024387845   -0.7854791304
H       -5.0453624310    0.1271655526    0.1907561673
C       -3.6152201239    1.4427345082    1.2629598271
H       -3.3966769162    2.4871394690    1.0717217370
H       -4.3512083836    1.4283665283    2.0716964077
H       -2.7228700095    0.9705899898    1.6250668448
8    
Iteration 15 Energy -78.78968672
C       -4.1334616857    0.6977347762   -0.0098412797
H       -3.4078866305   -0.0130599525   -0.3875297953
H       -4.3564934690    1.4028822944   -0.7938134759
H       -5.0421964198    0.1360498036    0.1993137887
C       -3.6153254717    1.4375970934    1.2626039206
H       -3.3982872110    2.4803987157    1.0631914973
H       -4.3540936523    1.4190136555    2.0618967763
H       -2.7181784537    0.9699250084    1.6339452166
8    
Iteration 16 Energy -78.78983134
C       -4.1343089578    0.6999227725   -0.0091912888
H       -3.4057725049   -0.0091520224   -0.3838440528
H       -4.3591360182    1.4030649273   -0.7979735322
H       -5.0405878707    0.1405039081    0.2035712672
C       -3.6153720811    1.4350178741    1.2624192403
H       -3.3990805090    2.4769941761    1.0589366043
H       -4.3554973605    1.4143478815    2.0569791135
H       -2.7158681618    0.9696113539    1.6384123948
8    
Iteration 17 Energy -78.78986685
C       -4.1347418693    0.7009425793   -0.0086413961
H       -3.4049274925   -0.0074086158   -0.3817529848
H       -4.3604880221    1.4035328653   -0.7998220133
H       -5.0397767037    0.1430119951    0.2057085019
C       -3.6155041666    1.4337963164    1.2622046401
H       -3.3996961618    2.4753414533    1.0567555191
H       -4.3558531973    1.4119743686    2.0544914268
H       -2.7146009165    0.9691082259    1.6403298922
8    
Iteration 18 Energy -78.78987683
C       -4.1353423711    0.7020702395   -0.0084126178
H       -3.4041838670   -0.0055168388   -0.3801249191
H       -4.3615213946    1.4032062691   -0.8020397605
H       -5.0396497068    0.1455046888    0.2076589488
C       -3.6153878864    1.4324778407    1.2622400279
H       -3.3999210617    2.4736302390    1.0548418868
H       -4.3562975866    1.4093157824    2.0526449974
H       -2.7133055306    0.9695123773    1.6423788515
8    
Iteration 19 Energy -78.78987660
C       -4.1353561019    0.7020718933   -0.0084018342
H       -3.4041875918   -0.0055553603   -0.3800884518
H       -4.3614767423    1.4033472084   -0.8019453161
H       -5.0395808568    0.1454294805    0.2077472353
C       -3.6153907380    1.4324749580    1.2622447770
H       -3.3999509342    2.4736581151    1.0548334638
H       -4.3563688400    1.4093972029    2.0525689104
H       -2.7132937500    0.9693931528    1.6422504343
