49   
Iteration 0 Energy -937.70301003
Cu      17.3024580000    3.0172750000    5.8163470000
N       17.9722460000    4.4475240000    6.9900020000
H       18.7547300000    4.6107160000    6.9087780000
N       15.3691650000    3.4106470000    6.1309700000
H       14.8914940000    2.6367310000    5.9957240000
H       15.1100330000    4.0192330000    5.5734360000
C       14.2433730000   -0.4632090000    1.8384730000
H       13.5688640000   -0.8580070000    1.3106140000
C       17.6604370000    1.5528210000    4.4848090000
C       18.6929220000    1.9312270000    5.0022070000
C       17.9054760000    6.6018040000    8.1223800000
H       18.8814790000    6.5177140000    8.1071620000
H       17.6027520000    6.7471810000    9.0430430000
H       17.6353070000    7.3621810000    7.5669380000
C       17.2869400000    5.3433000000    7.5853900000
C       15.8060370000    5.2463820000    7.7232990000
H       15.4110010000    5.8920250000    7.0856830000
H       15.5769550000    5.5627900000    8.6321690000
C       15.0876010000    3.9009370000    7.5138670000
C       15.5654760000    2.8362670000    8.4959710000
H       15.1164880000    1.9868120000    8.3011860000
H       15.3525590000    3.1156180000    9.4101670000
H       16.5349400000    2.7222470000    8.4077090000
C       13.5825680000    4.1154380000    7.6810700000
H       13.2721850000    4.7724830000    7.0248120000
H       13.3972290000    4.4439610000    8.5846140000
H       13.1142560000    3.2659830000    7.5403080000
B       13.7413340000    0.5743800000    3.0912600000
H       12.6782590000    0.8252260000    3.3421600000
B       14.4221310000   -1.0311760000    3.4334650000
H       13.8069480000   -1.8357350000    3.9109160000
B       15.6102580000   -1.4010310000    2.1685040000
H       15.7718330000   -2.4507350000    1.8146960000
B       15.6732480000   -0.0256550000    1.0519150000
H       15.8803770000   -0.1667550000   -0.0399460000
B       14.5272750000    1.1858160000    1.6282800000
H       13.9775040000    1.8464240000    0.9111520000
B       14.9897290000    0.3784070000    4.3326330000
H       14.7643430000    0.5109560000    5.4212610000
B       16.1537060000   -0.8466040000    3.7606430000
H       16.6970350000   -1.5221780000    4.4701620000
B       16.9288900000   -0.2259040000    2.2826360000
H       17.9832230000   -0.4924270000    2.0125240000
B       16.2465960000    1.3903410000    1.9459470000
H       16.8515740000    2.1949000000    1.4570830000
B       15.0405000000    1.7623340000    3.2088160000
H       14.8464510000    2.8113250000    3.5514010000
B       16.5444880000    0.8886500000    3.6293910000
H       19.5529550000    2.0096170000    5.1587570000
49   
Iteration 1 Energy -937.97173179
Cu      17.3638863909    3.0009736155    5.8001417095
N       17.9957131649    4.4556169762    6.9912370811
H       18.9243831127    4.6738821224    6.9258119524
N       15.4025414069    3.3529207761    6.0703784810
H       14.9159308074    2.5062443673    5.9083962860
H       15.1107203119    4.0240366702    5.4267671628
C       14.2054888007   -0.4034271219    1.9078934524
H       13.4400173677   -0.8206092419    1.3447075635
C       17.7252253104    1.5296842721    4.4733715374
C       18.7828050508    1.9085365912    4.9951131710
C       17.8621075609    6.6069097981    8.1157659098
H       18.9138040697    6.5377151689    8.1218774924
H       17.5158707093    6.7681865110    9.0986410779
H       17.5701388852    7.4202335886    7.5104305410
C       17.2635307802    5.3335138644    7.5670438813
C       15.7669649064    5.2088700081    7.6733553135
H       15.3497008624    5.8955513522    6.9817536492
H       15.4905656406    5.5447223787    8.6378282634
C       15.0821807754    3.8415016406    7.4496488356
C       15.5669077218    2.7864123555    8.4535476453
H       15.1095136513    1.8607637670    8.2395472470
H       15.3086296317    3.0840891031    9.4313591841
H       16.6129663109    2.6798401157    8.3885441637
C       13.5603855944    4.0271820770    7.5820600146
H       13.2197855328    4.7239937345    6.8673639516
H       13.3260341590    4.3789124501    8.5479478101
H       13.0796316455    3.1025357542    7.4229587718
B       13.7585682438    0.6491169735    3.1705390715
H       12.6718523721    0.9333356827    3.4507835790
B       14.4077790590   -0.9724140380    3.5013158413
H       13.7611217462   -1.7874412194    4.0072253001
B       15.5595709818   -1.3731790980    2.2113395699
H       15.6891628176   -2.4619409669    1.8431558425
B       15.6317481592   -0.0005695616    1.0897090765
H       15.8143237830   -0.1544256943   -0.0423394794
B       14.5266954158    1.2405044949    1.6881097682
H       13.9569373305    1.9334054508    0.9572114076
B       15.0301094065    0.4246967869    4.3850332748
H       14.8243972476    0.5694942282    5.5189301313
B       16.1514400738   -0.8292439891    3.7905347973
H       16.7117109035   -1.5402844456    4.5135078903
B       16.9096364665   -0.2293181953    2.2944525133
H       17.9862492175   -0.5315753025    1.9923878984
B       16.2596669889    1.4030490869    1.9689235504
H       16.8946908685    2.2195252320    1.4478748000
B       15.0904530257    1.8055448944    3.2572576627
H       14.9241694869    2.8973060770    3.6142027844
B       16.5797579445    0.8946821521    3.6456213069
H       19.7781562994    1.9991957745    5.1815152726
49   
Iteration 2 Energy -938.00068889
Cu      17.3676420204    3.0455175970    5.7394275927
N       17.9634561266    4.5213703890    6.9721282148
H       18.9253447856    4.7506521203    6.9552079761
N       15.3990425402    3.4212165105    6.1008611875
H       14.8996247447    2.5623058201    5.9032456057
H       15.0552023204    4.0946283998    5.4427501880
C       14.1949351592   -0.4803672854    1.8806342598
H       13.4076659026   -0.9424864272    1.3221695094
C       17.7239172619    1.5606667783    4.3660633202
C       18.7883581686    1.9525385431    4.8758656095
C       17.8141520825    6.6564461316    8.2598771272
H       18.8971122803    6.6811328829    8.2324810042
H       17.4848549431    6.7363254118    9.2906707436
H       17.4329433461    7.5248340799    7.7303385378
C       17.2798621004    5.3942529106    7.6156138672
C       15.7840912844    5.2322052721    7.7567375272
H       15.3335854701    5.9724488126    7.0936817220
H       15.5153620172    5.5488114693    8.7616764527
C       15.1203721732    3.8601633217    7.5020090027
C       15.6568592821    2.7843164610    8.4608295914
H       15.2036248399    1.8261998558    8.2307356490
H       15.4098210643    3.0398390014    9.4857026074
H       16.7318500414    2.6796711918    8.3782117998
C       13.6003437210    4.0241485249    7.6979832417
H       13.1986118347    4.7580256835    7.0064245954
H       13.3672384020    4.3420061863    8.7091567919
H       13.1033266363    3.0776642095    7.5164464146
B       13.7541242242    0.6808703792    3.0464080698
H       12.6329354687    0.9942174072    3.2632436094
B       14.3627013364   -0.9188681975    3.5203846208
H       13.6556224979   -1.6997731488    4.0591724741
B       15.5336025972   -1.4407231166    2.2946163863
H       15.6227539466   -2.5817278173    1.9957740197
B       15.6549215805   -0.1653576829    1.0689740586
H       15.8300711680   -0.4319533408   -0.0701410783
B       14.5584189796    1.1401591494    1.5344619740
H       13.9832401993    1.7707207896    0.7139484294
B       14.9951741513    0.5318158716    4.3039401112
H       14.7568701605    0.7726620053    5.4472547276
B       16.1044579704   -0.7881053246    3.8396167751
H       16.6426301422   -1.4673304395    4.6492697589
B       16.9078238769   -0.3198949073    2.3134918967
H       18.0088047488   -0.6734068355    2.0528914092
B       16.2972320243    1.2954446823    1.8418346344
H       16.9722160338    2.0748582704    1.2553571119
B       15.1103627991    1.8149344879    3.0657011603
H       14.9535075610    2.9626457075    3.3229399603
B       16.5679478776    0.9063845217    3.5612293060
H       19.8190079020    2.0361504064    5.0534844409
49   
Iteration 3 Energy -938.00253614
Cu      17.4342368637    3.0735718218    5.7099853638
N       18.0271841375    4.5590116164    6.9791357610
H       19.0029740038    4.8348353125    7.0132247541
N       15.4271559266    3.3931635207    6.0280277776
H       14.9667595078    2.5038838226    5.8005760643
H       15.0623959005    4.0462823637    5.3323327461
C       14.1675112342   -0.4487382829    2.0180267919
H       13.3406862243   -0.9200585826    1.4903933065
C       17.8027825327    1.5870753459    4.3207632873
C       18.8738306286    1.9904723852    4.8138769942
C       17.8923279669    6.5506028891    8.2304783710
H       18.9870713968    6.5371652292    8.1222406499
H       17.6400928736    6.6139494396    9.2997819324
H       17.5077161054    7.4683528228    7.7553770455
C       17.2353738537    5.3506178958    7.6017469733
C       15.7242694354    5.1989691834    7.6856143579
H       15.2950235482    5.9599482366    7.0039878978
H       15.4039019118    5.5212426186    8.6899492694
C       15.0714498531    3.8313092223    7.4018073951
C       15.5544435997    2.7608625183    8.3897612553
H       15.1281022495    1.7809094438    8.1258000123
H       15.2225963166    3.0071156809    9.4100563766
H       16.6486564809    2.6621724469    8.3964864057
C       13.5450599948    3.9953521387    7.5169198376
H       13.1700817741    4.7397840785    6.7960330330
H       13.2434375165    4.3173364333    8.5263082652
H       13.0416027217    3.0395718420    7.3056252933
B       13.7850145589    0.7039188059    3.2109345098
H       12.6528022053    0.9895328915    3.4643583049
B       14.4228679184   -0.8960809206    3.6430528779
H       13.7191034001   -1.6942352181    4.1846649686
B       15.5354230881   -1.4045751456    2.3590354052
H       15.5823459175   -2.5513472895    2.0314536805
B       15.5877482418   -0.1205505490    1.1348872813
H       15.6720078298   -0.3972676336   -0.0230490420
B       14.5045648949    1.1809537060    1.6600840272
H       13.8569265544    1.7897051181    0.8622765305
B       15.0844752426    0.5514270841    4.4014260195
H       14.8935629394    0.7737697748    5.5705495914
B       16.1776009702   -0.7597477801    3.8787665493
H       16.7602645979   -1.4473888196    4.6668375482
B       16.9030980277   -0.2764108562    2.3130054682
H       18.0015821690   -0.6261798721    1.9931190386
B       16.2602067005    1.3408993944    1.8788967873
H       16.9050440840    2.1346063637    1.2560251655
B       15.1355634370    1.8471762256    3.1693731466
H       14.9863061367    3.0077434809    3.4460660019
B       16.6118498439    0.9366458904    3.5756550141
H       19.9285442121    2.0809003789    4.9790477669
49   
Iteration 4 Energy -938.00717265
Cu      17.4280448084    3.0640425815    5.6963984552
N       18.0257450424    4.5457828978    6.9691666291
H       19.0130955831    4.7914071430    6.9982827453
N       15.4385902953    3.4349033986    6.0336897605
H       14.9603513339    2.5529575823    5.8190728228
H       15.0812125842    4.0979056953    5.3416719514
C       14.1656473879   -0.4917731345    1.9960992354
H       13.3442817665   -0.9662484722    1.4656626420
C       17.7865325843    1.5611411056    4.3048026480
C       18.8553097345    1.9644942842    4.7969324514
C       17.8433612624    6.5945266591    8.3183785231
H       18.9375459531    6.6475505246    8.2575211824
H       17.5451970671    6.6041460564    9.3762030673
H       17.4259035628    7.5063731829    7.8637302554
C       17.2932705901    5.3765584157    7.6186499792
C       15.7845185832    5.2387116832    7.6866469820
H       15.3689068421    6.0041783753    7.0053899547
H       15.4720565533    5.5646065312    8.6897525113
C       15.1045589398    3.8833296412    7.4061747867
C       15.5746533932    2.8070632979    8.3914705460
H       15.1282427945    1.8369143447    8.1334492523
H       15.2587185522    3.0627148475    9.4122137643
H       16.6651310110    2.6906387461    8.3852995449
C       13.5840101707    4.0747979428    7.5324569834
H       13.2200574458    4.8232586608    6.8131099446
H       13.3000822024    4.4053197026    8.5418429695
H       13.0630981642    3.1291975318    7.3282198711
B       13.7710842685    0.6430009663    3.2015878722
H       12.6379075382    0.9071530262    3.4548064684
B       14.4283072791   -0.9549259110    3.6145768247
H       13.7332251603   -1.7646500545    4.1410022722
B       15.5445379447   -1.4372508575    2.3228184858
H       15.5972467005   -2.5753283045    1.9809456077
B       15.5792051854   -0.1386391338    1.1118220565
H       15.6568584677   -0.4039174284   -0.0450864811
B       14.4815456629    1.1457831481    1.6541266514
H       13.8233441814    1.7476353876    0.8663375700
B       15.0736725757    0.4910890408    4.3861148179
H       14.8819590499    0.6912963949    5.5539081431
B       16.1807892918   -0.8002191492    3.8479914932
H       16.7706597177   -1.4865072880    4.6251614456
B       16.8968594362   -0.2919636035    2.2860221851
H       17.9947957065   -0.6242715540    1.9617742878
B       16.2346444910    1.3220366700    1.8703082966
H       16.8664144663    2.1266223933    1.2566740857
B       15.1079180824    1.8028433675    3.1695836659
H       14.9468140707    2.9553615928    3.4585880484
B       16.5949933812    0.9056525159    3.5611566991
H       19.9127206122    2.0529560456    4.9582738063
49   
Iteration 5 Energy -938.00780769
Cu      17.4224132998    3.0892483133    5.6736915141
N       18.0144655070    4.5672471358    6.9548346136
H       19.0030396160    4.8127726281    6.9978802687
N       15.4346322427    3.4417830711    6.0304213019
H       14.9685786253    2.5524628950    5.8279504537
H       15.0631539862    4.0972120613    5.3396633533
C       14.1649907755   -0.5092126731    2.0094414013
H       13.3452870175   -0.9933849291    1.4896647695
C       17.7869606890    1.5848913402    4.2742130688
C       18.8525034474    2.0019264392    4.7592512520
C       17.8428040532    6.5811837122    8.3460046224
H       18.9320953192    6.6417751862    8.2537620951
H       17.5781278662    6.5433140298    9.4100228074
H       17.4058310353    7.5048974107    7.9422735091
C       17.2836774444    5.3874819814    7.6156289434
C       15.7776109180    5.2485138015    7.6829640212
H       15.3652380865    6.0030465899    6.9917736095
H       15.4620413956    5.5815521658    8.6803439084
C       15.1074568346    3.8868673775    7.4082717653
C       15.6041534178    2.8165821500    8.3889862193
H       15.1589366628    1.8448542704    8.1451320545
H       15.3127882549    3.0739414197    9.4141266239
H       16.6927770895    2.7072497009    8.3548197509
C       13.5862528480    4.0626867911    7.5530061003
H       13.2062416464    4.8028529622    6.8367455127
H       13.3132489939    4.3936646311    8.5626959125
H       13.0758442222    3.1119522542    7.3588377926
B       13.7681842089    0.6552585695    3.1851324989
H       12.6346507049    0.9221884078    3.4222964196
B       14.4209514886   -0.9346025120    3.6387291935
H       13.7187254280   -1.7282351114    4.1746111364
B       15.5397834922   -1.4523069271    2.3602222198
H       15.5812596640   -2.5953230778    2.0424208117
B       15.5800425192   -0.1824639278    1.1173214304
H       15.6498355190   -0.4786898406   -0.0301281682
B       14.4840297268    1.1180232783    1.6265979996
H       13.8251103465    1.6931725213    0.8232847371
B       15.0674075751    0.5287191824    4.3761736988
H       14.8747439319    0.7569164909    5.5365180069
B       16.1723877445   -0.7792286097    3.8706481840
H       16.7580799413   -1.4452370032    4.6643212929
B       16.8932079452   -0.3108619852    2.2980124438
H       17.9893021254   -0.6517098096    1.9858744637
B       16.2358092273    1.2939195380    1.8422813242
H       16.8699661575    2.0806876114    1.2131069166
B       15.1078174200    1.8092242144    3.1263696396
H       14.9504302941    2.9657346041    3.3829602533
B       16.5912914917    0.9181222268    3.5441836735
H       19.9094592301    2.0975858374    4.9174382822
49   
Iteration 6 Energy -938.00843887
Cu      17.4269408538    3.1228911721    5.6323461150
N       18.0247858665    4.5921111797    6.9298721699
H       19.0206391859    4.8185582000    7.0140530387
N       15.4402986629    3.4647056796    5.9976805154
H       14.9930142210    2.5630192794    5.8177950748
H       15.0562972879    4.0977113186    5.2929866342
C       14.1562712347   -0.5491045923    2.0649473543
H       13.3340817063   -1.0452213326    1.5653699423
C       17.7980141113    1.5994499814    4.2290330535
C       18.8588286343    2.0422627965    4.6983011141
C       17.8713329379    6.5330423865    8.4046521421
H       18.9517822646    6.6147447877    8.2645447655
H       17.6624203415    6.3901865561    9.4704042863
H       17.4043487116    7.4806099604    8.1127052993
C       17.2921133528    5.3990034812    7.6022387189
C       15.7837690805    5.2935391015    7.6246550954
H       15.4124638632    6.0250523922    6.8909416174
H       15.4392820422    5.6660387197    8.5953736477
C       15.1065335339    3.9309159074    7.3686664303
C       15.5980094362    2.8731075091    8.3680189973
H       15.1347291300    1.9057638608    8.1529389761
H       15.3272998437    3.1576630492    9.3889698583
H       16.6817987685    2.7454337229    8.3180963409
C       13.5854724576    4.1147937319    7.5041825681
H       13.2128425142    4.8445167012    6.7768983566
H       13.3119032901    4.4613312085    8.5056741767
H       13.0746306452    3.1648210965    7.3217312861
B       13.7650188091    0.6070817354    3.2503021316
H       12.6286737751    0.8390716690    3.4990355813
B       14.4561283298   -0.9742756277    3.6854625631
H       13.7680500651   -1.7796580382    4.2171257886
B       15.5541726101   -1.4741781446    2.3781446632
H       15.5839809895   -2.6118421873    2.0487470413
B       15.5418395604   -0.2005435292    1.1340901840
H       15.5644200425   -0.5034576572   -0.0111595386
B       14.4355595016    1.0836832467    1.6735702799
H       13.7356622727    1.6272063575    0.8865813861
B       15.0932329474    0.4992960709    4.4080293638
H       14.9264381586    0.7147636331    5.5722800075
B       16.2078710853   -0.7901391342    3.8733325493
H       16.8240865230   -1.4415853133    4.6520513366
B       16.8820755905   -0.3088592555    2.2829239195
H       17.9754141800   -0.6273825120    1.9475336957
B       16.1864085615    1.2848829879    1.8448653763
H       16.7916529930    2.0819954183    1.2050262268
B       15.0823646619    1.7827368087    3.1584823369
H       14.9157943642    2.9337629552    3.4178534103
B       16.5881821451    0.9158189296    3.5368792307
H       19.9166956273    2.1529300958    4.8465484270
49   
Iteration 7 Energy -938.00862847
Cu      17.4318536698    3.1392395536    5.6041023436
N       18.0385623496    4.6062066963    6.9032186770
H       19.0358652382    4.8254246025    6.9939816253
N       15.4445159513    3.4460676374    5.9943851886
H       15.0160066652    2.5317786017    5.8347640477
H       15.0364621348    4.0565323452    5.2844630146
C       14.1441196979   -0.5555661923    2.0937499965
H       13.3174082787   -1.0556123735    1.6064201021
C       17.8052604094    1.6111168832    4.1982268286
C       18.8653169065    2.0727204721    4.6515527639
C       17.8656661836    6.5202830072    8.4233263631
H       18.9423969435    6.6340988340    8.2770845175
H       17.6711928600    6.3282352345    9.4844144745
H       17.3729616740    7.4673239611    8.1767725043
C       17.3015368292    5.4011149054    7.5880594523
C       15.7908496975    5.3003558507    7.5865710556
H       15.4302762074    6.0110976690    6.8274973725
H       15.4306122344    5.6980864930    8.5410482842
C       15.1163495234    3.9307856189    7.3584615810
C       15.6134009229    2.8887053822    8.3702207501
H       15.1419863776    1.9206252462    8.1773748774
H       15.3537615598    3.1937074992    9.3880784193
H       16.6956819801    2.7539070499    8.3114420695
C       13.5953729633    4.1095054021    7.4964674170
H       13.2189571702    4.8345037178    6.7666326780
H       13.3234533771    4.4597367248    8.4970095561
H       13.0872881724    3.1569932012    7.3200952870
B       13.7639288426    0.6200431966    3.2641768457
H       12.6273350350    0.8553933148    3.5113087305
B       14.4518074620   -0.9581665415    3.7190002883
H       13.7592002200   -1.7534625378    4.2612842648
B       15.5411221742   -1.4821847744    2.4125201510
H       15.5571494761   -2.6245521193    2.0966634475
B       15.5259685740   -0.2266118288    1.1488877156
H       15.5328352818   -0.5496232216    0.0083672801
B       14.4275388366    1.0705696354    1.6759809774
H       13.7205823073    1.5989844341    0.8839917248
B       15.0979472887    0.5240408696    4.4159815589
H       14.9410495349    0.7574799439    5.5788207356
B       16.2048291002   -0.7788301273    3.8934943655
H       16.8254273630   -1.4186783523    4.6794009002
B       16.8715455638   -0.3236368761    2.2915348045
H       17.9636784778   -0.6489886762    1.9563010138
B       16.1790466295    1.2662448938    1.8336310989
H       16.7850879646    2.0528100528    1.1803362040
B       15.0842247202    1.7885456573    3.1463179342
H       14.9256407571    2.9452684290    3.3881715046
B       16.5880902256    0.9210946673    3.5290173174
H       19.9224742247    2.1955422760    4.7901729899
49   
Iteration 8 Energy -938.00880735
Cu      17.4118679359    3.1544954160    5.5856704531
N       18.0472833349    4.6203472989    6.8735474548
H       19.0471226511    4.8196637824    6.9646805932
N       15.4322817621    3.4515396523    6.0231795866
H       15.0121039724    2.5289342317    5.8922550739
H       15.0014128521    4.0364839734    5.3072282930
C       14.1406170904   -0.5926339755    2.0826265796
H       13.3192657982   -1.1003659754    1.5940480651
C       17.7829837878    1.6116082099    4.1808991807
C       18.8401539799    2.0953378028    4.6177077377
C       17.9047315793    6.5090702888    8.4320060644
H       18.9800288449    6.6290645968    8.2756921393
H       17.7245150406    6.2786435098    9.4889879782
H       17.4074489109    7.4636469450    8.2267159960
C       17.3233302846    5.4152072681    7.5740707087
C       15.8096905308    5.3388977206    7.5646442773
H       15.4615713643    6.0241775636    6.7762450640
H       15.4467531807    5.7739771156    8.5019851876
C       15.1245694340    3.9683785010    7.3796191770
C       15.6259069011    2.9463619486    8.4077372208
H       15.1341336790    1.9814826396    8.2496668870
H       15.3899124750    3.2824911412    9.4222389562
H       16.7048845627    2.7915757926    8.3326477645
C       13.6063569865    4.1582067740    7.5327446951
H       13.2266541058    4.8811223904    6.8019346663
H       13.3468888374    4.5167050890    8.5343019164
H       13.0899636338    3.2074471921    7.3683406694
B       13.7483560035    0.5801127508    3.2530397924
H       12.6073027986    0.8030151147    3.4971926241
B       14.4503209552   -0.9925354257    3.7089168983
H       13.7619936817   -1.7949250124    4.2491382286
B       15.5468717521   -1.5062517452    2.4043482407
H       15.5704600451   -2.6493977216    2.0870036009
B       15.5216325548   -0.2509593550    1.1398932989
H       15.5294581086   -0.5757317370   -0.0013940712
B       14.4106895041    1.0367208215    1.6652900777
H       13.6974318717    1.5563721468    0.8710182163
B       15.0814036523    0.4958340753    4.4069079372
H       14.9235773204    0.7269166239    5.5710540205
B       16.2011673743   -0.7973188940    3.8861148587
H       16.8301472465   -1.4286815502    4.6744707099
B       16.8655808228   -0.3359992732    2.2847384792
H       17.9640616341   -0.6484801369    1.9530206104
B       16.1591533457    1.2474768551    1.8250570729
H       16.7612542517    2.0415319103    1.1745928788
B       15.0568788219    1.7605925565    3.1361295501
H       14.8893825195    2.9181897185    3.3764467233
B       16.5685427976    0.9077369990    3.5220935009
H       19.8955246146    2.2321706805    4.7442874525
49   
Iteration 9 Energy -938.00895090
Cu      17.4105564599    3.1485873018    5.5710092592
N       18.0536433152    4.6217573884    6.8439855051
H       19.0521523870    4.8085908630    6.9426328663
N       15.4349354739    3.4327415128    6.0300289289
H       15.0252534191    2.5022472954    5.9211101115
H       14.9929021838    3.9926255774    5.3021925652
C       14.1236673231   -0.5905276490    2.0908503324
H       13.2981512983   -1.0922254873    1.6024713493
C       17.7810989316    1.5940586407    4.1809040979
C       18.8386450526    2.0893956841    4.6037365757
C       17.9214564899    6.5013454636    8.4159752310
H       18.9998762331    6.6110159972    8.2705315278
H       17.7291938812    6.2641846220    9.4703037284
H       17.4348706878    7.4624465083    8.2137806670
C       17.3357332922    5.4208384617    7.5449073860
C       15.8214049718    5.3531885365    7.5277753638
H       15.4830584988    6.0133713914    6.7138279850
H       15.4540279802    5.8187107375    8.4492112252
C       15.1334126014    3.9793473852    7.3772269216
C       15.6402780540    2.9805743473    8.4246291167
H       15.1430866668    2.0137555802    8.2939384457
H       15.4152707216    3.3407218055    9.4341455863
H       16.7184311987    2.8191348585    8.3441247414
C       13.6158873765    4.1751920366    7.5352760011
H       13.2335451168    4.8917048608    6.7987329074
H       13.3610540918    4.5446801770    8.5347239241
H       13.0964637279    3.2234692725    7.3828041301
B       13.7413652063    0.5743545096    3.2730171023
H       12.6026741018    0.8008117455    3.5277406262
B       14.4409899837   -1.0042519341    3.7126915742
H       13.7550563044   -1.8088431636    4.2540975024
B       15.5293988092   -1.5102722610    2.3990242185
H       15.5511696909   -2.6519915654    2.0739406979
B       15.5014658406   -0.2453297641    1.1445722316
H       15.5057757432   -0.5600181090   -0.0002224672
B       14.3973932567    1.0417288527    1.6855663482
H       13.6832130164    1.5731581359    0.8989151733
B       15.0800641398    0.4768879227    4.4193795748
H       14.9312292678    0.7005638373    5.5869462614
B       16.1933173089   -0.8157349048    3.8828762825
H       16.8269947614   -1.4532532046    4.6636056531
B       16.8511792286   -0.3438689197    2.2817909045
H       17.9487705870   -0.6549058082    1.9433406496
B       16.1470279522    1.2456073910    1.8378134192
H       16.7499976196    2.0441746789    1.1924135024
B       15.0519830539    1.7519846660    3.1590354192
H       14.8908740151    2.9097532708    3.4109264884
B       16.5633085188    0.8916126941    3.5304458296
H       19.8923188461    2.2351550309    4.7220298209
49   
Iteration 10 Energy -938.00903477
Cu      17.4106940615    3.1419708047    5.5599292255
N       18.0629099428    4.6217213346    6.8185328654
H       19.0609151030    4.7984622080    6.9212604242
N       15.4386064858    3.4206347382    6.0391223355
H       15.0332799426    2.4858802521    5.9477168281
H       14.9899141859    3.9643805954    5.3027876397
C       14.1039505356   -0.5893864153    2.0994411453
H       13.2745875375   -1.0871095028    1.6125780399
C       17.7763984926    1.5801901119    4.1816470131
C       18.8360391811    2.0807381635    4.5925348606
C       17.9440578087    6.4954228344    8.3950570070
H       19.0266408207    6.5812559220    8.2637245856
H       17.7323149078    6.2702738240    9.4486760524
H       17.4805226958    7.4654051393    8.1793309562
C       17.3501004405    5.4236817007    7.5204531599
C       15.8359166467    5.3638554461    7.5010265816
H       15.5027214451    6.0047819938    6.6697919901
H       15.4679092045    5.8513570847    8.4110035070
C       15.1446684797    3.9880991314    7.3785482958
C       15.6587846181    3.0060324860    8.4381504738
H       15.1616545744    2.0363136418    8.3277658922
H       15.4428979775    3.3821465173    9.4442468681
H       16.7366815765    2.8435702688    8.3514068942
C       13.6287583612    4.1890885215    7.5411186401
H       13.2439903378    4.8968775289    6.7969185759
H       13.3802051473    4.5723852739    8.5372871031
H       13.1068944033    3.2361134096    7.4031621180
B       13.7302478904    0.5726382908    3.2870077068
H       12.5951481888    0.8053031179    3.5506769396
B       14.4259891237   -1.0096031683    3.7185228791
H       13.7428944115   -1.8129697860    4.2645236706
B       15.5074190605   -1.5144747638    2.3992982385
H       15.5293951617   -2.6554489608    2.0725460719
B       15.4791895633   -0.2454150220    1.1496901279
H       15.4836259214   -0.5539108049    0.0034787374
B       14.3818628441    1.0431435539    1.6988640109
H       13.6696499597    1.5841788279    0.9174961711
B       15.0729715688    0.4668672111    4.4282682256
H       14.9299831743    0.6884367345    5.5969584335
B       16.1794582585   -0.8277563608    3.8830370812
H       16.8144293640   -1.4694524476    4.6586736546
B       16.8332014061   -0.3525937145    2.2814984088
H       17.9284898346   -0.6650491053    1.9382364834
B       16.1331282691    1.2409395673    1.8456255387
H       16.7370011023    2.0398227166    1.2021082449
B       15.0442778842    1.7460400042    3.1726361583
H       14.8887289351    2.9033966452    3.4292560895
B       16.5546446190    0.8789900292    3.5362497856
H       19.8898727551    2.2310305375    4.7029116367
49   
Iteration 11 Energy -938.00908823
Cu      17.4157649948    3.1368320623    5.5462414757
N       18.0771696062    4.6219281393    6.7938084377
H       19.0762387910    4.7898617283    6.9008127088
N       15.4461099093    3.4150677858    6.0408445201
H       15.0413016068    2.4786266134    5.9617714385
H       14.9940373613    3.9492135125    5.2982557332
C       14.0801380101   -0.5914328318    2.1170529694