10   
Scan Cycle 1/88 ; Dihedral 3-1-2-10 = 0.00, Angle 1-3-2 = 100.00 ; Iteration 56 Energy -134.51119622
C       -0.3953474063   -0.0669744008   -1.0756304908
C        0.8551781158    0.2117795966    0.7366891790
N       -0.5393134412    0.1808321565    0.3440377919
H        0.1329861735   -1.0232964451   -1.2700865757
H        0.1792022041    0.7414531141   -1.5734753695
H       -1.3758276894   -0.1290807689   -1.5862318967
H        1.3632847014   -0.7490145017    0.5122942950
H        0.9741156415    0.3952061025    1.8220806613
H        1.4095508913    1.0154640365    0.2090303728
H       -1.3580291906    0.2989311103    0.9053920327
10   
Scan Cycle 2/88 ; Dihedral 3-1-2-10 = 0.00, Angle 1-3-2 = 105.00 ; Iteration 9 Energy -134.51971891
C       -0.4151779483   -0.0703790740   -1.0984786252
C        0.8719984753    0.2160921178    0.7643205110
N       -0.4943291429    0.1749507429    0.3166263732
H        0.0990641745   -1.0303189685   -1.3201474323
H        0.1452694510    0.7330754227   -1.6232952082
H       -1.4193408644   -0.1231756854   -1.5586386602
H        1.3990892417   -0.7409885599    0.5612476867
H        0.9377478019    0.4014139825    1.8525349171
H        1.4453280023    1.0224131519    0.2581461990
H       -1.3238491911    0.2922168700    0.8717842387
10   
Scan Cycle 3/88 ; Dihedral 3-1-2-10 = 0.00, Angle 1-3-2 = 110.00 ; Iteration 9 Energy -134.52518032
C       -0.4345248608   -0.0743617862   -1.1246084548
C        0.8895791019    0.2203280111    0.7916316474
N       -0.4509135080    0.1688280647    0.2875681979
H        0.0613196475   -1.0382922334   -1.3738065240
H        0.1075154013    0.7245913265   -1.6768703659
H       -1.4607869801   -0.1173758134   -1.5312433809
H        1.4358861108   -0.7323715538    0.6154627349
H        0.8966257490    0.4072852814    1.8803986837
H        1.4821159585    1.0305195273    0.3124480716
H       -1.2810166201    0.2861491757    0.8431193901
10   
Scan Cycle 4/88 ; Dihedral 3-1-2-10 = 0.00, Angle 1-3-2 = 115.00 ; Iteration 8 Energy -134.52818009
C       -0.4526194355   -0.0783849800   -1.1507783929
C        0.9076580020    0.2243555706    0.8178117864
N       -0.4066162238    0.1625759025    0.2579205836
H        0.0211070589   -1.0463695085   -1.4280944741
H        0.0672937992    0.7161230867   -1.7310928594
H       -1.4988600435   -0.1112002474   -1.5011376487
H        1.4723778621   -0.7233776682    0.6721808994
H        0.8541821973    0.4124880174    1.9041792237
H        1.5185994191    1.0391227147    0.3692330204
H       -1.2373226357    0.2799671123    0.8138778616
10   
Scan Cycle 5/88 ; Dihedral 3-1-2-10 = 0.00, Angle 1-3-2 = 120.00 ; Iteration 6 Energy -134.52911822
C       -0.4696248640   -0.0823563263   -1.1764777449
C        0.9256925488    0.2281826186    0.8428221168
N       -0.3615331894    0.1562097647    0.2277477288
H       -0.0206315411   -1.0541635778   -1.4812946445
H        0.0255417690    0.7078299434   -1.7842071658
H       -1.5329443458   -0.1048018486   -1.4691203035
H        1.5072725593   -0.7141162830    0.7298843760
H        0.8113984200    0.4169502947    1.9236068556
H        1.5534809608    1.0478850002    0.4270226343
H       -1.1928523175    0.2736804141    0.7841161473
10   
Scan Cycle 6/88 ; Dihedral 3-1-2-10 = 0.00, Angle 1-3-2 = 125.00 ; Iteration 8 Energy -134.52826543
C       -0.4857660304   -0.0862127300   -1.2013756733
C        0.9432874748    0.2318344793    0.8667470387
N       -0.3156077538    0.1497238429    0.1970111210
H       -0.0632424934   -1.0614495137   -1.5323382487
H       -0.0170882563    0.6998228814   -1.8351260306
H       -1.5628993287   -0.0982851523   -1.4357849647
H        1.5397925682   -0.7046812823    0.7875702041
H        0.7688870828    0.4206724469    1.9387704854
H        1.5859811844    1.0565988412    0.4848323332
H       -1.1475444477    0.2672761865    0.7537937349
10   
Scan Cycle 7/88 ; Dihedral 3-1-2-10 = 0.00, Angle 1-3-2 = 130.00 ; Iteration 8 Energy -134.52580072
C       -0.5011147067   -0.0898791487   -1.2250458109
C        0.9600134926    0.2353065892    0.8894953606
N       -0.2691240820    0.1431575418    0.1659010652
H       -0.1059303804   -1.0680627009   -1.5802073481
H       -0.0598010552    0.6922464299   -1.8828274532
H       -1.5886182219   -0.0917744664   -1.4018388515
H        1.5692668197   -0.6952341360    0.8441339375
H        0.7273555363    0.4236639392    1.9498325129
H        1.6154284512    1.0650820668    0.5415607585
H       -1.1016758536    0.2607938851    0.7230958290
10   
Scan Cycle 8/88 ; Dihedral 3-1-2-10 = 0.00, Angle 1-3-2 = 135.00 ; Iteration 9 Energy -134.52184498
C       -0.5157903815   -0.0933166246   -1.2472813781
C        0.9756312141    0.2386111096    0.9111004232
N       -0.2221313496    0.1365189020    0.1344505531
H       -0.1482813320   -1.0739574979   -1.6245060427
H       -0.1021832668    0.6851681883   -1.9269206300
H       -1.6103340264   -0.0853342327   -1.3676889965
H        1.5954749389   -0.6858706174    0.8990537640
H        0.6871028285    0.4259785909    1.9571558707
H        1.6416034195    1.0732618800    0.5966834355
H       -1.0552920446    0.2542403019    0.6920530007
10   
Scan Cycle 9/88 ; Dihedral 3-1-2-10 = 0.00, Angle 1-3-2 = 140.00 ; Iteration 9 Energy -134.51648952
C       -0.5298505081   -0.0964935618   -1.2679061144
C        0.9899532254    0.2417508374    0.9315499323
N       -0.1747267432    0.1298220884    0.1027242687
H       -0.1899509682   -1.0791278338   -1.6650046602
H       -0.1438900247    0.6786415482   -1.9671842540
H       -1.6283324147   -0.0790141641   -1.3336642910
H        1.6183299153   -0.6766804226    0.9519349601
H        0.6483349316    0.4276762967    1.9611230600
H        1.6644207777    1.0810954815    0.6497987028
H       -1.0084881910    0.2476297300    0.6607283957
10   
Scan Cycle 10/88 ; Dihedral 3-1-2-10 = 0.00, Angle 1-3-2 = 145.00 ; Iteration 9 Energy -134.50981262
C       -0.5433241548   -0.0993881128   -1.2867967139
C        1.0028519128    0.2447257335    0.9508254850
N       -0.1269707263    0.1230761585    0.0707626666
H       -0.2307010049   -1.0835961386   -1.7016351075
H       -0.1846824807    0.6726980761   -2.0035601535
H       -1.6429487093   -0.0728433323   -1.2999804353
H        1.6378588850   -0.6677332884    1.0025401219
H        0.6111326246    0.4288204729    1.9621205203
H        1.6839088377    1.0885679903    0.7006605891
H       -0.9613251842    0.2409724410    0.6291630272
10   
Scan Cycle 11/88 ; Dihedral 3-1-2-10 = 0.00, Angle 1-3-2 = 150.00 ; Iteration 4 Energy -134.50189346
C       -0.5562904616   -0.1019490964   -1.3036702721
C        1.0142505771    0.2474904410    0.9686490159
N       -0.0788534697    0.1162881070    0.0386190506
H       -0.2704933926   -1.0873722966   -1.7342615244
H       -0.2245162269    0.6673912648   -2.0359203718
H       -1.6546106081   -0.0667836472   -1.2665027592
H        1.6542390839   -0.6591218092    1.0505306894
H        0.5756792056    0.4294496662    1.9603777851
H        1.7002458849    1.0956438559    0.7489148788
H       -0.9138505925    0.2342635144    0.5973635077
10   
Scan Cycle 12/88 ; Dihedral 3-1-2-10 = 10.00, Angle 1-3-2 = 100.00 ; Iteration 80 Energy -134.51542821
C       -0.4119611660   -0.0490132097   -1.0684339242
C        0.8683858151    0.2260196774    0.7257344422
N       -0.5285536072    0.2709755978    0.3409948264
H        0.0690880206   -1.0356536738   -1.2532504289
H        0.1941209669    0.7207628098   -1.5804595961
H       -1.3995242614   -0.0673164492   -1.5684233250
H        1.3427679658   -0.7619724099    0.5311381215
H        1.0057442891    0.4490631721    1.8013783873
H        1.4382002578    0.9883205823    0.1633887393
H       -1.3324682808    0.1341139032    0.9320327574
10   
Scan Cycle 13/88 ; Dihedral 3-1-2-10 = 10.00, Angle 1-3-2 = 105.00 ; Iteration 19 Energy -134.52317638
C       -0.4335361552   -0.0526434910   -1.0943431279
C        0.8852448596    0.2307107942    0.7542117868
N       -0.4878766417    0.2540363873    0.3138309199
H        0.0243297778   -1.0457179870   -1.3094394986
H        0.1679239631    0.7104596985   -1.6245175856
H       -1.4419437607   -0.0473262336   -1.5478156990
H        1.3810003507   -0.7542010352    0.5921066057
H        0.9681146694    0.4704020654    1.8304237177
H        1.4718950046    0.9907013498    0.2033729392
H       -1.2893520676    0.1188784516    0.9062699417
10   
Scan Cycle 14/88 ; Dihedral 3-1-2-10 = 10.00, Angle 1-3-2 = 110.00 ; Iteration 17 Energy -134.52801479
C       -0.4534241254   -0.0561657025   -1.1198262769
C        0.9027864936    0.2352102531    0.7812101630
N       -0.4459567263    0.2337983082    0.2870155724
H       -0.0284701819   -1.0565763723   -1.3703172271
H        0.1433766715    0.6994719859   -1.6676235090
H       -1.4808709116   -0.0200960690   -1.5240253736
H        1.4214636537   -0.7450642138    0.6620925192
H        0.9289938228    0.4976520949    1.8539460917
H        1.5053763097    0.9920924110    0.2415283159
H       -1.2474750061    0.0949773044    0.8800997246
10   
Scan Cycle 15/88 ; Dihedral 3-1-2-10 = 10.00, Angle 1-3-2 = 115.00 ; Iteration 15 Energy -134.53050008
C       -0.4723570772   -0.0594124996   -1.1452580126
C        0.9205713921    0.2398520396    0.8072469857
N       -0.4036127124    0.2093354163    0.2605564300
H       -0.0901532200   -1.0671870611   -1.4345032080
H        0.1221600356    0.6877148696   -1.7080032427
H       -1.5154558381    0.0155865049   -1.4988490199
H        1.4620279087   -0.7337077654    0.7412306575
H        0.8888478117    0.5321405065    1.8713276076
H        1.5375268377    0.9918000936    0.2759541903
H       -1.2037551381    0.0591778956    0.8543976122
10   
Scan Cycle 16/88 ; Dihedral 3-1-2-10 = 10.00, Angle 1-3-2 = 120.00 ; Iteration 14 Energy -134.53102603
C       -0.4905744631   -0.0620633203   -1.1700452980
C        0.9379115584    0.2448406220    0.8323017284
N       -0.3606377687    0.1819144783    0.2341007301
H       -0.1581460208   -1.0759239810   -1.4980154066
H        0.1035834897    0.6753409500   -1.7461732648
H       -1.5450915755    0.0569952471   -1.4723503895
H        1.4995793742   -0.7197690387    0.8256625275
H        0.8483156177    0.5712082453    1.8825524328
H        1.5685942611    0.9900920102    0.3073715586
H       -1.1577344730    0.0126647871    0.8286953814
10   
Scan Cycle 17/88 ; Dihedral 3-1-2-10 = 10.00, Angle 1-3-2 = 125.00 ; Iteration 12 Energy -134.52984880
C       -0.5081480638   -0.0640287919   -1.1937050258
C        0.9543203639    0.2501760965    0.8562759458
N       -0.3166999651    0.1550469173    0.2068731822
H       -0.2270779836   -1.0819517399   -1.5557390174
H        0.0842770675    0.6628324415   -1.7848055065
H       -1.5701396918    0.0978167434   -1.4442168766
H        1.5310393113   -0.7042280299    0.9086609448
H        0.8078854505    0.6087249098    1.8891244032
H        1.5998662549    0.9884500258    0.3396363764
H       -1.1095227438   -0.0375385725    0.8019955739
10   
Scan Cycle 18/88 ; Dihedral 3-1-2-10 = 10.00, Angle 1-3-2 = 130.00 ; Iteration 11 Energy -134.52713297
C       -0.5250122085   -0.0653663669   -1.2159719854
C        0.9695808357    0.2557404017    0.8790389695
N       -0.2716865173    0.1316278429    0.1783497681
H       -0.2926956802   -1.0857556288   -1.6045960498
H        0.0615666551    0.6506958741   -1.8256252167
H       -1.5914037463    0.1335130039   -1.4146193276
H        1.5550394498   -0.6887781174    0.9854232346
H        0.7680940664    0.6404408708    1.8927517704
H        1.6319788462    0.9880918289    0.3756637359
H       -1.0596617008   -0.0849097092    0.7736851011
10   
Scan Cycle 19/88 ; Dihedral 3-1-2-10 = 10.00, Angle 1-3-2 = 135.00 ; Iteration 9 Energy -134.52300022
C       -0.5411722933   -0.0659820047   -1.2366872972
C        0.9835302253    0.2615935491    0.9005287858
N       -0.2257522500    0.1119198609    0.1486008181
H       -0.3543959439   -1.0880859877   -1.6444978568
H        0.0356396142    0.6390220752   -1.8679057645
H       -1.6093218199    0.1644560809   -1.3842866197
H        1.5718063145   -0.6742499716    1.0555112175
H        0.7294199117    0.6669243787    1.8939903215
H        1.6643055673    0.9889336902    0.4150387227
H       -1.0082593259   -0.1292316711    0.7438076728
10   
Scan Cycle 20/88 ; Dihedral 3-1-2-10 = 10.00, Angle 1-3-2 = 140.00 ; Iteration 9 Energy -134.51756045
C       -0.5568049230   -0.0654492183   -1.2556246317
C        0.9958372013    0.2681289855    0.9207553354
N       -0.1790980343    0.0946675874    0.1179617155
H       -0.4139024103   -1.0891088805   -1.6763575721
H        0.0083918993    0.6275454033   -1.9098668454
H       -1.6239474944    0.1939307568   -1.3540771341
H        1.5816355423   -0.6603763976    1.1208412038
H        0.6921756400    0.6915395559    1.8924946246
H        1.6958631675    0.9900911617    0.4555067525
H       -0.9543505883   -0.1756689542    0.7124665515
10   
Scan Cycle 21/88 ; Dihedral 3-1-2-10 = 10.00, Angle 1-3-2 = 145.00 ; Iteration 9 Energy -134.51092840
C       -0.5722099147   -0.0630566570   -1.2724524149
C        1.0059910921    0.2760128164    0.9397540957
N       -0.1318285891    0.0788436004    0.0866647718
H       -0.4731765687   -1.0885001828   -1.7002402050
H       -0.0184228833    0.6158754735   -1.9502943340
H       -1.6353741758    0.2253756042   -1.3247604983
H        1.5838827658   -0.6465501137    1.1831947743
H        0.6565557184    0.7177865609    1.8878988331
H        1.7261659505    0.9906926978    0.4951424416
H       -0.8957833952   -0.2311797996    0.6791925356
10   
Scan Cycle 22/88 ; Dihedral 3-1-2-10 = 10.00, Angle 1-3-2 = 150.00 ; Iteration 9 Energy -134.50323571
C       -0.5878320187   -0.0580148368   -1.2868571409
C        1.0134458768    0.2859229003    0.9575019374
N       -0.0840721674    0.0650900540    0.0544736412
H       -0.5320021228   -1.0857606012   -1.7150543446
H       -0.0454776048    0.6044471836   -1.9892433719
H       -1.6446077284    0.2593531259   -1.2967079431
H        1.5760245796   -0.6330882625    1.2431191068
H        0.6229185600    0.7482744551    1.8801797670
H        1.7561599267    0.9894410040    0.5334993208
H       -0.8287573010   -0.3003650223    0.6431890273
10   
Scan Cycle 23/88 ; Dihedral 3-1-2-10 = 20.00, Angle 1-3-2 = 100.00 ; Iteration 64 Energy -134.52424390
C       -0.4346528712   -0.0261893342   -1.0720513133
C        0.8701634550    0.2551622057    0.7226882741
N       -0.5415516993    0.3013829556    0.3440522876
H        0.0756246070   -0.9950497739   -1.2737244928
H        0.1376960042    0.7702660235   -1.5752309732
H       -1.4297208812   -0.0658423429   -1.5544314551
H        1.3597984016   -0.7212856514    0.5076170080
H        1.0030687426    0.4665912487    1.8005819393
H        1.4166171071    1.0368657998    0.1693724793
H       -1.2112428659   -0.1466011308    0.9552262460
10   
Scan Cycle 24/88 ; Dihedral 3-1-2-10 = 20.00, Angle 1-3-2 = 105.00 ; Iteration 18 Energy -134.53052314
C       -0.4555470251   -0.0306058042   -1.0926754626
C        0.8913363738    0.2605978725    0.7522329196
N       -0.4949770490    0.2846413589    0.3232413182
H        0.0270874612   -1.0086525847   -1.3237505207
H        0.1136918078    0.7551619916   -1.6190872051
H       -1.4730941593   -0.0451964229   -1.5238545455
H        1.4048313249   -0.7108710740    0.5639361951
H        0.9760025669    0.4845578988    1.8312097094
H        1.4485402578    1.0434792798    0.2088951678
H       -1.1920715591   -0.1578125156    0.9039524239
10   
Scan Cycle 25/88 ; Dihedral 3-1-2-10 = 20.00, Angle 1-3-2 = 110.00 ; Iteration 13 Energy -134.53389173
C       -0.4752920819   -0.0346640880   -1.1171561279
C        0.9088948891    0.2646259183    0.7786266984
N       -0.4523686957    0.2641740337    0.2957638780
H       -0.0243039333   -1.0201839126   -1.3826397368
H        0.0887243045    0.7439263393   -1.6617574628
H       -1.5114147119   -0.0214378974   -1.4989940936
H        1.4459021927   -0.7022988194    0.6309781002
H        0.9377407155    0.5081331317    1.8553798486
H        1.4821776233    1.0452072045    0.2466967728
H       -1.1542603024   -0.1721819101    0.8772021230
10   
Scan Cycle 26/88 ; Dihedral 3-1-2-10 = 20.00, Angle 1-3-2 = 115.00 ; Iteration 13 Energy -134.53507138
C       -0.4941345064   -0.0386316882   -1.1417034559
C        0.9265510244    0.2685517074    0.8040586010
N       -0.4095451426    0.2414406919    0.2680991417
H       -0.0816131931   -1.0312838640   -1.4431066569
H        0.0645008571    0.7325634280   -1.7035740867
H       -1.5460694007    0.0066664433   -1.4725413262
H        1.4861440779   -0.6923003954    0.7040847302
H        0.8978722225    0.5351005215    1.8746668321
H        1.5154003448    1.0462792515    0.2835684753
H       -1.1133062838   -0.1930860961    0.8505477454
10   
Scan Cycle 27/88 ; Dihedral 3-1-2-10 = 20.00, Angle 1-3-2 = 120.00 ; Iteration 12 Energy -134.53443603
C       -0.5121135553   -0.0423699541   -1.1656697986
C        0.9438916226    0.2724503487    0.8284661174
N       -0.3660506955    0.2182249572    0.2400075594
H       -0.1416497799   -1.0409574096   -1.5011777424
H        0.0398031614    0.7212171065   -1.7452739733
H       -1.5766745869    0.0357574853   -1.4442654521
H        1.5230522797   -0.6810123047    0.7787880938
H        0.8574057072    0.5620590047    1.8894356602
H        1.5483663786    1.0474016280    0.3208450508
H       -1.0702305318   -0.2174708619    0.8229444849
10   
Scan Cycle 28/88 ; Dihedral 3-1-2-10 = 20.00, Angle 1-3-2 = 125.00 ; Iteration 11 Energy -134.53223774
C       -0.5291947870   -0.0458298571   -1.1886741552
C        0.9605728154    0.2762906852    0.8517025133
N       -0.3216643397    0.1966931743    0.2109984994
H       -0.2007761207   -1.0488778394   -1.5536889118
H        0.0128696921    0.7101613674   -1.7878736421
H       -1.6032697209    0.0621674380   -1.4142701461
H        1.5547770131   -0.6692888333    0.8507059870
H        0.8169890726    0.5854804991    1.9005014846
H        1.5814274190    1.0493178829    0.3604133888
H       -1.0259310440   -0.2408145172    0.7942849821
10   
Scan Cycle 29/88 ; Dihedral 3-1-2-10 = 20.00, Angle 1-3-2 = 130.00 ; Iteration 11 Energy -134.52864717
C       -0.5453644973   -0.0489592504   -1.2104674808
C        0.9763578207    0.2800704589    0.8736741114
N       -0.2763926214    0.1778356595    0.1809206645
H       -0.2571028901   -1.0553462896   -1.5993696982
H       -0.0168663385    0.6995305977   -1.8312748803
H       -1.6260743337    0.0845782973   -1.3830053121
H        1.5807687521   -0.6579582249    0.9177680766
H        0.7771710517    0.6042127120    1.9084648359
H        1.6142921923    1.0522229136    0.4027498975
H       -0.9809891358   -0.2608868740    0.7646397855
10   
Scan Cycle 30/88 ; Dihedral 3-1-2-10 = 20.00, Angle 1-3-2 = 135.00 ; Iteration 9 Energy -134.52378771
C       -0.5608599560   -0.0515995350   -1.2312153256
C        0.9908162276    0.2838034464    0.8942958704
N       -0.2308189877    0.1612073244    0.1494706779
H       -0.3101145816   -1.0603934265   -1.6391024794
H       -0.0491253919    0.6899419092   -1.8742809833
H       -1.6455362144    0.1033582826   -1.3516049942
H        1.6004629796   -0.6477088720    0.9806361824
H        0.7378740017    0.6199412647    1.9131308446
H        1.6465815596    1.0551002953    0.4466215865
H       -0.9334796370   -0.2783506891    0.7361486208
10   
Scan Cycle 31/88 ; Dihedral 3-1-2-10 = 20.00, Angle 1-3-2 = 140.00 ; Iteration 9 Energy -134.51776926
C       -0.5756005889   -0.0534883713   -1.2499113123
C        1.0040212142    0.2879425364    0.9137384159
N       -0.1843861176    0.1460026423    0.1179310135
H       -0.3617770493   -1.0646781202   -1.6720591024
H       -0.0816321528    0.6802261825   -1.9156262481
H       -1.6614750649    0.1217552719   -1.3196801847
H        1.6153228101   -0.6377045900    1.0395430973
H        0.7004099951    0.6341991136    1.9150342426
H        1.6768485628    1.0584505172    0.4904354839
H       -0.8859316088   -0.2974051824    0.7046945942
10   
Scan Cycle 32/88 ; Dihedral 3-1-2-10 = 20.00, Angle 1-3-2 = 145.00 ; Iteration 9 Energy -134.51069069
C       -0.5898902435   -0.0542229206   -1.2666285516
C        1.0153977430    0.2927643098    0.9319760914
N       -0.1376417207    0.1315601408    0.0861048911
H       -0.4126906534   -1.0678968899   -1.6987586019
H       -0.1134236201    0.6706623770   -1.9544752451
H       -1.6743150063    0.1413364903   -1.2883433622
H        1.6244880667   -0.6279788949    1.0956676506
H        0.6644109489    0.6492298145    1.9140167221
H        1.7049799928    1.0614250316    0.5328660416
H       -0.8355155076   -0.3215794585    0.6716743639
10   
Scan Cycle 33/88 ; Dihedral 3-1-2-10 = 20.00, Angle 1-3-2 = 150.00 ; Iteration 9 Energy -134.50266149
C       -0.6039497430   -0.0533115390   -1.2810772339
C        1.0245069729    0.2987162046    0.9490165526
N       -0.0907448660    0.1180113151    0.0540555104
H       -0.4633704424   -1.0699067396   -1.7184210138
H       -0.1438463457    0.6610413249   -1.9907144169
H       -1.6845352440    0.1635011479   -1.2581022712
H        1.6270510484   -0.6184666881    1.1492083918
H        0.6299230304    0.6664973222    1.9103813543
H        1.7310730330    1.0637344686    0.5733507012
H       -0.7803074436   -0.3545168165    0.6364024255
10   
Scan Cycle 34/88 ; Dihedral 3-1-2-10 = 30.00, Angle 1-3-2 = 100.00 ; Iteration 44 Energy -134.52964131
C       -0.4569225888   -0.0087977365   -1.0733206448
C        0.8673468319    0.2781734932    0.7314317254
N       -0.5554111595    0.3688635984    0.3419089465
H        0.0554060569   -0.9798409243   -1.2480441971
H        0.1055349296    0.7758981059   -1.6041053062
H       -1.4592571751   -0.0640339151   -1.5371822539
H        1.3261087569   -0.7102046129    0.5127603512
H        0.9882036327    0.4811644369    1.8115615894
H        1.4388229671    1.0482328550    0.1880605134
H       -1.0640322518   -0.3141553005    0.9010292760
10   
Scan Cycle 35/88 ; Dihedral 3-1-2-10 = 30.00, Angle 1-3-2 = 105.00 ; Iteration 16 Energy -134.53492464
C       -0.4749245148   -0.0146988323   -1.0912637250
C        0.8895732267    0.2837844805    0.7592100878
N       -0.5028121714    0.3547012186    0.3222149132
H        0.0131868109   -0.9953444449   -1.2904913981
H        0.0792870471    0.7572999285   -1.6515937009
H       -1.5000039943   -0.0498186004   -1.5013638961
H        1.3755158128   -0.6972247896    0.5564776493
H        0.9654134217    0.4892190850    1.8419167480
H        1.4689486213    1.0616266951    0.2335099464
H       -1.0683842599   -0.3142447405    0.8454833755
10   
Scan Cycle 36/88 ; Dihedral 3-1-2-10 = 30.00, Angle 1-3-2 = 110.00 ; Iteration 8 Energy -134.53714424
C       -0.4935658040   -0.0198305374   -1.1161782622
C        0.9077849761    0.2866707671    0.7844990542
N       -0.4589226225    0.3368582658    0.2924123173
H       -0.0283121930   -1.0061581997   -1.3465734206
H        0.0470860221    0.7474125522   -1.6976775861
H       -1.5369168090   -0.0365387906   -1.4759241334
H        1.4166440196   -0.6901247298    0.6132729998
H        0.9276170545    0.5025190092    1.8667624196
H        1.5040196732    1.0660557743    0.2783654643
H       -1.0396343171   -0.3115641112    0.8251411471
10   
Scan Cycle 37/88 ; Dihedral 3-1-2-10 = 30.00, Angle 1-3-2 = 115.00 ; Iteration 8 Energy -134.53725775
C       -0.5112792639   -0.0250061030   -1.1408591237
C        0.9263135618    0.2894252686    0.8089712948
N       -0.4147762920    0.3169756701    0.2630720888
H       -0.0752967348   -1.0173459807   -1.4042232774
H        0.0152656658    0.7374105590   -1.7425583066
H       -1.5705753968   -0.0194875958   -1.4485750511
H        1.4580682853   -0.6819671719    0.6755043278
H        0.8889977590    0.5184720560    1.8873835565
H        1.5379116616    1.0704449614    0.3226314394
H       -1.0088292461   -0.3136216637    0.8027530514
10   
Scan Cycle 38/88 ; Dihedral 3-1-2-10 = 30.00, Angle 1-3-2 = 120.00 ; Iteration 9 Energy -134.53564300
C       -0.5281441719   -0.0300469968   -1.1649398768
C        0.9445169215    0.2920544861    0.8324542045
N       -0.3703355925    0.2956927750    0.2337384058
H       -0.1258156800   -1.0279100358   -1.4610499489
H       -0.0162087415    0.7276564149   -1.7857921336
H       -1.6004485086   -0.0002566926   -1.4198993400
H        1.4975285747   -0.6728510635    0.7407181281
H        0.8499631576    0.5356992205    1.9036334761
H        1.5703326705    1.0746659978    0.3660595283
H       -0.9755886298   -0.3194041055    0.7791775565
10   
Scan Cycle 39/88 ; Dihedral 3-1-2-10 = 30.00, Angle 1-3-2 = 125.00 ; Iteration 9 Energy -134.53257023
C       -0.5441726697   -0.0348286407   -1.1880133533
C        0.9619919318    0.2946008325    0.8548215979
N       -0.3254261606    0.2740421621    0.2041184974
H       -0.1777293946   -1.0372847682   -1.5147044334
H       -0.0477497134    0.7182433911   -1.8274804379
H       -1.6263472739    0.0193284163   -1.3901068790
H        1.5334000494   -0.6630252337    0.8061276474
H        0.8110472501    0.5524373185    1.9157707580
H        1.6012298285    1.0789093994    0.4090566897
H       -0.9404438476   -0.3271228771    0.7545099132
10   
Scan Cycle 40/88 ; Dihedral 3-1-2-10 = 30.00, Angle 1-3-2 = 130.00 ; Iteration 10 Energy -134.52822764
C       -0.5593790498   -0.0392487000   -1.2097824187
C        0.9784390613    0.2971039777    0.8759849175
N       -0.2799434249    0.2529195745    0.1739908029
H       -0.2293212379   -1.0452972679   -1.5636208464
H       -0.0797507269    0.7092028715   -1.8677316893
H       -1.6483444938    0.0379617096   -1.3594363721
H        1.5647125465   -0.6529048884    0.8696559148
H        0.7726498476    0.5674835236    1.9241974021
H        1.6305785431    1.0832874188    0.4520151755
H       -0.9038410652   -0.3352082193    0.7288271138
10   
Scan Cycle 41/88 ; Dihedral 3-1-2-10 = 30.00, Angle 1-3-2 = 135.00 ; Iteration 10 Energy -134.52275445
C       -0.5738301907   -0.0431620588   -1.2300067377
C        0.9935904649    0.2996653975    0.8959111182
N       -0.2339798114    0.2324523566    0.1434028400
H       -0.2799695697   -1.0520063407   -1.6071794196
H       -0.1119062876    0.7005572554   -1.9061406194
H       -1.6666461604    0.0556866451   -1.3283415846
H        1.5910840486   -0.6427681675    0.9305607379
H        0.7351274587    0.5810044208    1.9292226405
H        1.6580889797    1.0876920467    0.4945325416
H       -0.8657589320   -0.3438215552    0.7021384831
10   
Scan Cycle 42/88 ; Dihedral 3-1-2-10 = 30.00, Angle 1-3-2 = 140.00 ; Iteration 10 Energy -134.51626244
C       -0.5876354603   -0.0463644008   -1.2484660461
C        1.0071744254    0.3024536598    0.9146002524
N       -0.1877007544    0.2124809171    0.1125021820
H       -0.3296601435   -1.0574805316   -1.6451219479
H       -0.1436218177    0.6923005290   -1.9422339252
H       -1.6815625795    0.0732074332   -1.2973072034
H        1.6122869221   -0.6327363904    0.9887720700
H        0.6987330347    0.5938275057    1.9311260519
H        1.6835007859    1.0919302208    0.5359217871
H       -0.8257144129   -0.3543189427    0.6743067792
10   
Scan Cycle 43/88 ; Dihedral 3-1-2-10 = 30.00, Angle 1-3-2 = 145.00 ; Iteration 11 Energy -134.50885451
C       -0.6009096210   -0.0486141310   -1.2649616365
C        1.0189325698    0.3056789311    0.9320563066
N       -0.1412574223    0.1930054666    0.0814006112
H       -0.3784396496   -1.0617523278   -1.6771173143
H       -0.1744254549    0.6843807872   -1.9757929352
H       -1.6934896483    0.0912442801   -1.2667317459
H        1.6280005444   -0.6229023533    1.0442497099
H        0.6636101559    0.6067910348    1.9302407927
H        1.7067606616    1.0958353038    0.5756900380
H       -0.7829821357   -0.3683669913    0.6450661736
10   
Scan Cycle 44/88 ; Dihedral 3-1-2-10 = 30.00, Angle 1-3-2 = 150.00 ; Iteration 12 Energy -134.50063519
C       -0.6140493595   -0.0496322481   -1.2798708273
C        1.0284633701    0.3094853574    0.9483482249
N       -0.0954112696    0.1742045983    0.0494400648
H       -0.4252340214   -1.0642365141   -1.7040996027
H       -0.2052216094    0.6779297014   -2.0066333021
H       -1.7034074691    0.1088844854   -1.2373800559
H        1.6361975237   -0.6141826791    1.0978841516
H        0.6293147748    0.6219238413    1.9264286895
H        1.7290509689    1.0979808387    0.6133894845
H       -0.7339029084   -0.3870573811    0.6165931727
10   
Scan Cycle 45/88 ; Dihedral 3-1-2-10 = 40.00, Angle 1-3-2 = 100.00 ; Iteration 40 Energy -134.52375910
C       -0.4781496301    0.0044803411   -1.0723291852
C        0.8620124011    0.2961443122    0.7474181585
N       -0.5655453569    0.4536682622    0.3357377472
H        0.0254715943   -0.9760330088   -1.1978715525
H        0.0806634299    0.7538390556   -1.6581142383
H       -1.4894745299   -0.0677583719   -1.5121408075
H        1.2746927794   -0.7081122742    0.5211135692
H        0.9613159234    0.4780296077    1.8326949550
H        1.4840782424    1.0466157665    0.2301107237
H       -0.9092648537   -0.4055736904    0.7974806301
10   
Scan Cycle 46/88 ; Dihedral 3-1-2-10 = 40.00, Angle 1-3-2 = 105.00 ; Iteration 19 Energy -134.52972407
C       -0.4905674089   -0.0013768777   -1.0888512951
C        0.8820261874    0.3010449113    0.7698847418
N       -0.5053368643    0.4424989769    0.3118591366
H       -0.0014400272   -0.9884271109   -1.2369874302
H        0.0491058673    0.7374975325   -1.7072115749
H       -1.5236649338   -0.0621116049   -1.4736437557
H        1.3230013644   -0.6960727642    0.5534252989
H        0.9381692007    0.4786622308    1.8581967533
H        1.5135390573    1.0619420104    0.2783158305
H       -0.9390324430   -0.3983573042    0.7591122949
10   
Scan Cycle 47/88 ; Dihedral 3-1-2-10 = 40.00, Angle 1-3-2 = 110.00 ; Iteration 7 Energy -134.53231561
C       -0.5079609344   -0.0075456676   -1.1159074415