75   
Iteration 0 Energy -1958.26943885
C       17.3330000000    2.4160000000    6.0370000000
C       21.7240000000    0.9300000000    4.8020000000
C       19.8750000000   -2.8360000000    2.5350000000
C       15.5210000000   -0.7120000000    2.8590000000
C       18.7000000000    2.1630000000    6.1790000000
C       19.5990000000    3.2150000000    6.5610000000
C       20.8030000000    2.9340000000    6.0150000000
C       20.6580000000    1.6750000000    5.3260000000
C       22.1770000000    3.5640000000    6.2830000000
C       19.3410000000    4.2670000000    7.6240000000
C       18.3810000000    3.9530000000    8.7520000000
C       17.3580000000    5.0430000000    9.0450000000
O       17.5910000000    5.7770000000   10.0340000000
O       16.3120000000    5.1860000000    8.3470000000
C       21.5810000000   -0.4350000000    4.5130000000
C       22.7210000000   -1.2110000000    4.1040000000
C       22.2160000000   -2.2390000000    3.3800000000
C       20.7870000000   -2.0330000000    3.2450000000
C       24.1880000000   -0.9410000000    4.4730000000
C       22.8810000000   -3.3620000000    2.9210000000
C       24.2228601600   -3.4667933700    3.0791034500
C       18.5600000000   -2.4360000000    2.2270000000
C       17.6740000000   -3.1750000000    1.3670000000
C       16.4650000000   -2.5860000000    1.4810000000
C       16.5950000000   -1.4960000000    2.4090000000
C       18.0900000000   -4.3840000000    0.5280000000
C       15.3080000000   -2.8040000000    0.7090000000
C       15.4185979700   -3.1009787400   -0.6086261800
C       15.6110000000    0.1900000000    3.9180000000
C       14.4970000000    0.9570000000    4.4280000000
C       15.0030000000    1.8510000000    5.3070000000
C       16.4290000000    1.6380000000    5.3330000000
C       13.0690000000    0.8020000000    3.8820000000
C       14.2730000000    2.9710000000    6.0290000000
C       13.7430000000    2.5990000000    7.3970000000
C       12.7000000000    3.5380000000    7.9650000000
O       11.5490000000    3.1220000000    8.1540000000
O       13.0240000000    4.7170000000    8.2290000000
N       19.3570000000    1.2120000000    5.4100000000
N       20.3930000000   -0.9080000000    3.9490000000
N       17.8710000000   -1.4560000000    2.9180000000
N       16.8120000000    0.6930000000    4.3750000000
Fe      18.5850000000   -0.1100000000    4.1730000000
H       16.5570670300    5.3722905500    7.4376936800
H       13.9810936400    4.7898404500    8.2453103300
H       17.8546063400    3.0545349000    8.5058899200
H       18.9510277900    3.7785542700    9.6405589500
H       20.2838859200    4.5137761200    8.0655514600
H       18.9757946800    5.1413551500    7.1269807400
H       13.3147171800    1.6203799600    7.3355455900
H       14.5679232900    2.5635502500    8.0775474900
H       14.9454841300    3.7958055100    6.1401799200
H       13.4496966300    3.2841418900    5.4215350100
H       13.0602422900    0.0590781800    3.1120061800
H       12.4148656100    0.5025103200    4.6740316500
H       12.7375539500    1.7364826400    3.4797740500
H       22.8858632000    3.1882663200    5.5750189500
H       22.1066006500    4.6273760000    6.1872116400
H       22.4962319300    3.3154758300    7.2735688800
H       16.9491235800    3.2920479400    6.5166654000
H       14.5794901400   -0.8125250200    2.3606488200
H       20.1982297800   -3.8033333600    2.2114437100
H       22.6622882400    1.4108579700    4.6195423600
H       24.7884745600   -0.9637921000    3.5876690900
H       24.2685469700    0.0212702600    4.9339209700
H       24.5285107700   -1.6924660800    5.1543597800
H       19.0277284400   -4.7582986900    0.8822116000
H       17.3463165800   -5.1487933500    0.6112231700
H       18.1870225100   -4.0908229500   -0.4964675900
H       14.3413548700   -2.7352004700    1.1626119700
H       22.3358490200   -4.1477978000    2.4411747900
H       16.3145059700   -3.5511820100   -0.9822113500
H       14.6100131600   -2.8852544700   -1.2753747400
H       24.8722743600   -2.7427554400    2.6330874600
H       24.6329135700   -4.2735721100    3.6499486800
75   
Iteration 1 Energy -1958.31813533
C       17.3390184002    2.4292917602    6.0311992236
C       21.7357004463    0.9639745517    4.8264904161
C       19.9094270492   -2.8142452088    2.5506916001
C       15.5542998180   -0.7135349633    2.8546031325
C       18.7029100833    2.1866020839    6.1754449703
C       19.5903798980    3.2479498582    6.5673978425
C       20.8092617408    2.9758071991    6.0315566945
C       20.6755303894    1.7112974966    5.3415764402
C       22.1635349784    3.6256628017    6.3171930598
C       19.2948249715    4.2941947598    7.6234692476
C       18.3047419740    3.9300029346    8.7286589264
C       17.2448472815    4.9887935216    8.9997100574
O       17.3493316482    5.7459438479    9.9714319552
O       16.2093695290    5.0716509667    8.2141572565
C       21.5988340485   -0.3995292836    4.5292778461
C       22.7297169745   -1.1874573657    4.1211692465
C       22.2371439539   -2.2396989803    3.3855941747
C       20.8070250664   -2.0100514462    3.2606306833
C       24.1801376584   -0.9005295102    4.5060446235
C       22.8876798355   -3.3928753835    2.9122960352
C       24.2256592483   -3.6778989834    2.9827794700
C       18.6005228064   -2.4239313432    2.2391427853
C       17.7144013188   -3.1637779145    1.3754878297
C       16.4867706941   -2.5792832904    1.4770938240
C       16.6279837614   -1.4887382274    2.4112100495
C       18.1374719406   -4.3677275463    0.5437882609
C       15.3069040398   -2.7959845487    0.6997391782
C       15.2950336627   -3.0959701893   -0.6203003351
C       15.6313112207    0.1913264317    3.9089832109
C       14.5109977786    0.9563580225    4.4221966247
C       15.0272704873    1.8539876442    5.3026299971
C       16.4506399205    1.6439416658    5.3236336500
C       13.0802669782    0.8135194557    3.8990357099
C       14.3137673563    2.9722207107    6.0334215827
C       13.8003242520    2.5846511799    7.4146395095
C       12.7695364196    3.5321138902    7.9984771264
O       11.6166424657    3.1615293159    8.2081083189
O       13.1389932468    4.7360023686    8.2627597849
N       19.3734104652    1.2410646821    5.4155370560
N       20.4207210885   -0.8860470251    3.9605874516
N       17.9061972904   -1.4438661260    2.9234289907
N       16.8321397477    0.7014421087    4.3722139314
Fe      18.6120737009   -0.0924972281    4.1773097843
H       16.4921379098    5.2561079784    7.3092407218
H       14.1033386133    4.7993161338    8.2652390320
H       17.8070139154    3.0137590803    8.4544017248
H       18.8499105172    3.7582080446    9.6402109410
H       20.2270650709    4.5650241814    8.0902424475
H       18.9219894469    5.1729265237    7.1175920103
H       13.3614170983    1.6035928842    7.3553790148
H       14.6409851815    2.5373267310    8.0903266340
H       14.9966120845    3.7999554894    6.1391670921
H       13.4791121002    3.2974893577    5.4333109082
H       13.0489823458    0.0696252480    3.1223909854
H       12.4265692937    0.5149121408    4.7024142170
H       12.7452683347    1.7576279550    3.5012405272
H       22.8965109677    3.2612378717    5.6183662652
H       22.0818219068    4.6957386524    6.2193873533
H       22.4765095077    3.3831636002    7.3200020859
H       16.9429000564    3.3035779071    6.5140280191
H       14.6133535130   -0.8251529991    2.3500691827
H       20.2419074963   -3.7825774701    2.2259996393
H       22.6797149158    1.4448720661    4.6527120153
H       24.8021722234   -0.9167598687    3.6289900456
H       24.2451431414    0.0702139313    4.9692089692
H       24.5239641436   -1.6514030927    5.2001632523
H       19.0797546425   -4.7443681199    0.9032696705
H       17.3910973592   -5.1411037071    0.6221282312
H       18.2427995733   -4.0786215517   -0.4892125284
H       14.3582444248   -2.7139697447    1.2010049104
H       22.2620301357   -4.1330539283    2.4417741810
H       16.1440827197   -3.5539964590   -1.0914593096
H       14.4239734325   -2.8732738024   -1.2100983196
H       24.9528864573   -3.0270515706    2.5335410424
H       24.5597307316   -4.5659995928    3.4908076537
75   
Iteration 2 Energy -1958.38528073
C       17.3173005452    2.4505261059    5.9654944655
C       21.7118443442    0.9617278078    4.8488976203
C       19.8675184163   -2.7943884343    2.5261469488
C       15.5330055381   -0.7103814300    2.8119683073
C       18.6808517553    2.2530489901    6.0946691324
C       19.5992209125    3.2890808969    6.5484265912
C       20.8381601983    2.9920077775    6.0281690008
C       20.6800690233    1.7350662813    5.3242503252
C       22.1523437332    3.6474182336    6.3552766620
C       19.3062895586    4.3494622711    7.5900835937
C       18.2695707240    3.9425155811    8.6982626227
C       17.2364283883    5.0187622929    8.9647851079
O       17.2091356169    5.7740081105    9.8785932126
O       16.2072488803    5.0561820300    8.0183066100
C       21.5800235410   -0.3808694736    4.4795287178
C       22.7032459581   -1.1982262085    4.1338141070
C       22.1806027184   -2.2632474836    3.3869246822
C       20.7471946006   -2.0118108384    3.2408010758
C       24.1261370826   -0.9810184898    4.5415487640
C       22.8631776079   -3.4518228435    2.9413708037
C       24.2292999822   -3.5047549236    3.2047705432
C       18.5740229879   -2.4280337406    2.2224142741
C       17.7030202956   -3.1670303821    1.3331537813
C       16.4539652222   -2.5684229959    1.4192183518
C       16.5897747032   -1.4770061694    2.3715296545
C       18.0916408131   -4.3472502544    0.4931925010
C       15.2420906767   -2.8064219584    0.6155955800
C       15.2878523289   -3.1454591641   -0.6835845646
C       15.6013895827    0.2089233140    3.8405824029
C       14.4727196370    0.9528288981    4.3846829620
C       15.0204038962    1.8600401263    5.2620787224
C       16.4457247078    1.6653092945    5.2502042663
C       13.0327914300    0.8302881664    3.9725587930
C       14.3437858555    2.9452613758    6.0414811917
C       13.9260654853    2.4747667815    7.4624422072
C       12.9492983948    3.4345127781    8.1286425834
O       11.8090059363    3.1786427229    8.4087722546
O       13.4570843358    4.6817835308    8.3842576592
N       19.3597218752    1.2991611791    5.3590094087
N       20.3970946500   -0.8813134449    3.9206488473
N       17.8781086364   -1.4279109192    2.8804904254
N       16.8065146982    0.7177773453    4.3243593277
Fe      18.5969385538   -0.0702898436    4.1268146721
H       16.5488821000    5.1704163586    7.1082185207
H       14.4370483227    4.7205111720    8.3116380915
H       17.7492963737    3.0206834362    8.4048101202
H       18.7811216292    3.7470903507    9.6460284449
H       20.2502586992    4.6206900322    8.0806040969
H       18.9691608193    5.2715129058    7.0727837899
H       13.4586647594    1.4853488708    7.4114514454
H       14.8271661347    2.3841167046    8.0952015809
H       15.0344348159    3.7967365738    6.1274569186
H       13.4586008920    3.3027765308    5.4915475373
H       12.9086067032    0.0871228212    3.1788493463
H       12.4006620976    0.5275777894    4.8214710543
H       12.6604633333    1.7976147558    3.6022197337
H       22.9436975000    3.3059715121    5.6793118416
H       22.0821210341    4.7413468282    6.2673745965
H       22.4532813387    3.4054889700    7.3872598499
H       16.8903637993    3.3015805276    6.4800824178
H       14.5796209169   -0.8584274427    2.3172492766
H       20.2193172391   -3.7543624320    2.1638727654
H       22.6928590166    1.4165229301    4.7631323062
H       24.7983239416   -1.0428484061    3.6769985523
H       24.2552802739    0.0005818040    5.0151283921
H       24.4332300907   -1.7587745349    5.2623517692
H       19.0378354613   -4.7837155563    0.8313440846
H       17.3116779892   -5.1209771075    0.5438220315
H       18.2122226540   -4.0543834954   -0.5620492705
H       14.2672948454   -2.6995275196    1.1038425250
H       22.3184256866   -4.2724915458    2.4504157412
H       16.1908599829   -3.4964158432   -1.1825530805
H       14.3858622164   -3.0719131197   -1.2902175133
H       24.9198952575   -2.6643424656    3.0981092337
H       24.6675353365   -4.4459258028    3.5439453981
75   
Iteration 3 Energy -1958.40358122
C       17.3140703576    2.4773643202    5.9813746004
C       21.7199084671    0.9865829127    4.8587656252
C       19.8939844926   -2.7629123671    2.5365452041
C       15.5482050011   -0.7047724347    2.8220574311
C       18.6846514712    2.2897771129    6.1042702950
C       19.6203317452    3.3168232012    6.5639418074
C       20.8499282627    3.0071892159    6.0358039983
C       20.6838712241    1.7582016482    5.3316358405
C       22.1641301189    3.6563312650    6.3596264214
C       19.3837472600    4.3901407057    7.6065421555
C       18.3735082916    4.0303567833    8.7527037969
C       17.4017212880    5.1534935383    9.0399461881
O       17.4553010849    5.9087667035    9.9557775076
O       16.3384116589    5.2380844200    8.1240617468
C       21.5901297570   -0.3510938974    4.4791875660
C       22.7159524384   -1.1672732449    4.1411526308
C       22.1977622116   -2.2359752793    3.3957881129
C       20.7658965210   -1.9726102658    3.2570319395
C       24.1250972930   -0.9190519340    4.5695446696
C       22.8385323988   -3.4477007118    2.9335619404
C       24.1644206012   -3.8122982396    3.0358217445
C       18.5959969078   -2.4033264899    2.2356510233
C       17.7361566701   -3.1479545102    1.3420389263
C       16.4900314928   -2.5556414322    1.4278577449
C       16.6101400398   -1.4653924569    2.3797794285
C       18.1262863019   -4.3227274505    0.5003246309
C       15.2851900005   -2.8067316870    0.6234724769
C       15.3206143719   -3.1524194511   -0.6714486829
C       15.6167649632    0.2162706718    3.8474735300
C       14.4792492163    0.9348116975    4.3821953661
C       14.9935894435    1.8544363520    5.2621472824
C       16.4340149795    1.6892584211    5.2642967643
C       13.0471496161    0.7833439515    3.9670389587
C       14.2459025370    2.9077827318    6.0202934287
C       13.8128910463    2.4164356120    7.4295785003
C       12.7649603382    3.3236167315    8.0611908402
O       11.6375332268    2.9789984247    8.2936152076
O       13.1746239548    4.6021705318    8.3316098773
N       19.3624167136    1.3336502035    5.3677050998
N       20.4050539142   -0.8447828604    3.9318486278
N       17.8950904126   -1.4038938755    2.8906875696
N       16.8092853878    0.7389394910    4.3400584143
Fe      18.6040490968   -0.0405560946    4.1380942552
H       16.6562037718    5.3207516343    7.2048619151
H       14.1497517713    4.7080469208    8.2882098869
H       17.8088095080    3.1282347790    8.4890710135
H       18.9079669167    3.8248454574    9.6859919289
H       20.3496600796    4.6324750593    8.0675101658
H       19.0633384360    5.3211660606    7.0962197144
H       13.3975377394    1.4047007116    7.3690407969
H       14.6988018369    2.3716346945    8.0856976357
H       14.8843006228    3.7945401141    6.1235851514
H       13.3590648007    3.2187817868    5.4467077548
H       12.9349785230    0.0376598440    3.1729999202
H       12.4153770325    0.4693836007    4.8118427792
H       12.6531016785    1.7411470322    3.5949221285
H       22.9562760723    3.3169085922    5.6833117048
H       22.1009825961    4.7505919931    6.2752435555
H       22.4706195784    3.4140013432    7.3898608792
H       16.8858174632    3.3219487685    6.5016010658
H       14.5923608667   -0.8618211141    2.3341134092
H       20.2552255770   -3.7164326287    2.1670881195
H       22.7030955392    1.4395404320    4.7861008967
H       24.8190327336   -0.9627114150    3.7227697147
H       24.2264268749    0.0652490792    5.0436736589
H       24.4417758928   -1.6860861810    5.2976022360
H       19.0723107027   -4.7636672959    0.8334443539
H       17.3481225002   -5.0981263946    0.5447277728
H       18.2486748811   -4.0306193656   -0.5548391491
H       14.3135582774   -2.7022789990    1.1159167859
H       22.1663527728   -4.1761554827    2.4631580111
H       16.2301124581   -3.4797034714   -1.1738078227
H       14.4128505446   -3.1116969636   -1.2719867579
H       25.0029689023   -3.1306537500    2.9181671038
H       24.4197455919   -4.8543383211    3.2388790014
75   
Iteration 4 Energy -1958.41826892
C       17.3371159190    2.4992793368    5.9761742720
C       21.7568091800    1.0079845905    4.8757255751
C       19.9270929035   -2.7613088440    2.5261812413
C       15.5739254413   -0.6968399711    2.8298248039
C       18.7022743042    2.2831005303    6.0699688450
C       19.5867819222    3.3206717241    6.5583981031
C       20.8276491780    3.0297156398    6.0544014984
C       20.7037398952    1.7760305160    5.3382899322
C       22.1207397673    3.7095068744    6.4021818254
C       19.2537377912    4.3722470054    7.5872946513
C       18.2218169089    3.9137788077    8.6664949234
C       17.1379475340    4.9366706953    8.9252561035
O       17.0778489632    5.6723450638    9.8745034982
O       16.1191881032    4.9468052001    7.9654647798
C       21.6263217711   -0.3215930553    4.4668199019
C       22.7368102973   -1.1639546163    4.1316984123
C       22.2379283231   -2.2333687664    3.3975967657
C       20.8111027880   -1.9722051443    3.2525101708
C       24.1467906712   -0.9225700886    4.5687230746
C       22.8804663593   -3.4432436390    2.9502903227
C       24.1627247486   -3.8734578986    3.0233800772
C       18.6171474005   -2.4110258160    2.2319082801
C       17.7425693804   -3.1418758833    1.3439422166
C       16.5045004138   -2.5484566327    1.4305159353
C       16.6377154943   -1.4657799030    2.3814820819
C       18.1261494728   -4.3185828444    0.5014125960
C       15.2946559628   -2.7964106939    0.6483915091
C       15.1829581414   -3.1542980078   -0.6388991703
C       15.6534307881    0.2379483468    3.8461911004
C       14.5319362277    0.9680581940    4.3980094897
C       15.0464087095    1.8935619196    5.2663830588
C       16.4784722096    1.7022013909    5.2440600983
C       13.0926597307    0.8143204993    4.0068248401
C       14.3302866351    2.9599506656    6.0396454727
C       13.9399651686    2.5024548401    7.4651741451
C       12.9449989833    3.4508900883    8.1132662583
O       11.8084026020    3.1606665074    8.3975034123
O       13.4039365640    4.7089142965    8.3310858994
N       19.3889713128    1.3366699105    5.3420625789
N       20.4501125847   -0.8344367957    3.9215965930
N       17.9251791176   -1.4058530602    2.8807552665
N       16.8535232501    0.7412922993    4.3296543260
Fe      18.6449194751   -0.0443744318    4.1178224297
H       16.4891661147    5.0571365342    7.0749607800
H       14.3737985001    4.7643249887    8.2333072371
H       17.7481554153    2.9813518736    8.3558812852
H       18.7288411959    3.7293566034    9.6153763583
H       20.1719528007    4.6720637664    8.0978860180
H       18.8994088735    5.2838257091    7.0785842396
H       13.5000333416    1.5043023755    7.4390977948
H       14.8452807160    2.4488571000    8.0831436349
H       14.9785781658    3.8359522759    6.1206302752
H       13.4350874479    3.2798165839    5.4953361400
H       12.9611516223    0.0665632585    3.2219424972
H       12.4749434969    0.5084315683    4.8590371667
H       12.6891029259    1.7638317323    3.6367784224
H       22.9339142877    3.3948922261    5.7447996659
H       22.0361952256    4.7976547375    6.3187555445
H       22.4180415770    3.4780075739    7.4329070963
H       16.9118038526    3.3342780168    6.5139973625
H       14.6130210886   -0.8581848581    2.3578856878
H       20.2899883153   -3.7044433693    2.1404452968
H       22.7422910858    1.4549484343    4.8415024998
H       24.8477335032   -0.9686847622    3.7322054717
H       24.2550011757    0.0559050647    5.0426069505
H       24.4589141580   -1.6851255312    5.2958925004
H       19.0649210797   -4.7693441026    0.8312631153
H       17.3463026065   -5.0859169292    0.5391207216
H       18.2553314849   -4.0327308102   -0.5495233167
H       14.3626718615   -2.6677740518    1.1960919015
H       22.1937440588   -4.1525145783    2.4904047885
H       16.0381581517   -3.4661390570   -1.2279061201
H       14.2187070936   -3.1395996683   -1.1385095397
H       25.0072151256   -3.1983747921    2.9859464977
H       24.3845864028   -4.9350682598    3.1025208513
75   
Iteration 5 Energy -1958.44417737
C       17.3362026752    2.5384774829    5.9321994586
C       21.7753261866    1.0116736225    4.8842450094
C       19.9206725264   -2.7481920568    2.5004261258
C       15.5720975378   -0.6861529264    2.8091823301
C       18.7094411529    2.3671257950    6.0048942184
C       19.6460524297    3.3291052002    6.5497219426
C       20.8879801442    3.0256991539    6.0574555086
C       20.7204861193    1.7941468896    5.3186279271
C       22.1903806200    3.6788041436    6.4176970001
C       19.3634281566    4.3738043022    7.5955570509
C       18.3794903074    3.9165915228    8.7156901599
C       17.3782975734    4.9868213906    9.0851137400
O       17.3446065154    5.6838859490   10.0656856440
O       16.3503736727    5.1250705884    8.1355760231
C       21.6352469269   -0.2882891564    4.4066360627
C       22.7244026323   -1.1738088450    4.1025620999
C       22.2191909386   -2.2435466409    3.3915426111
C       20.8002599334   -1.9647225777    3.2386033278
C       24.1388895701   -0.9788022912    4.5470069757
C       22.8683229364   -3.4645785733    2.9789751417
C       24.1620811784   -3.7781959789    3.1389181505
C       18.6053076465   -2.4012414086    2.2347157944
C       17.7296307064   -3.1221193355    1.3415517511
C       16.4895361512   -2.5258145513    1.4106733691
C       16.6402649487   -1.4507846970    2.3663021376
C       18.1196498375   -4.3023752067    0.5101575382
C       15.2604293009   -2.7877790609    0.6606488089
C       15.0294882339   -3.1833977020   -0.5993506918
C       15.6585253375    0.2741524575    3.8002204948
C       14.5197788238    0.9709612628    4.3499698489
C       15.0285288254    1.9123597574    5.2049195860
C       16.4677015209    1.7593312359    5.1938135867
C       13.0761904911    0.7677179900    3.9999118495
C       14.2507636708    2.9349785609    5.9771490395
C       13.8765091618    2.4639826370    7.4024819111
C       12.7647813602    3.3100356108    8.0063352798
O       11.6578216171    2.8881804764    8.2457417954
O       13.0507278400    4.6243525771    8.2025796481
N       19.3886503257    1.4066218931    5.2876959196
N       20.4499545297   -0.8044757826    3.8871073217
N       17.9285236747   -1.3756625967    2.8602777358
N       16.8493358256    0.7793373556    4.3056020259
Fe      18.6486051830   -0.0008283697    4.0833231357
H       16.7322441006    5.1990742227    7.2471802210
H       14.0032254126    4.8038506799    8.0993669035
H       17.8452445256    3.0205960519    8.4001080019
H       18.9330754400    3.6752329610    9.6238675177
H       20.3062127172    4.6336807728    8.0806099216
H       19.0275479390    5.3138683292    7.1312434401
H       13.5245701166    1.4324602954    7.3788819050
H       14.7717955304    2.4954230855    8.0354168195
H       14.8120576457    3.8684435002    6.0514889645
H       13.3345247463    3.1729376877    5.4285937449
H       12.9344718866    0.0089907360    3.2277371389
H       12.4885779414    0.4545355716    4.8700288208
H       12.6252854013    1.6965703130    3.6331386070
H       23.0057629979    3.3703561255    5.7602391696
H       22.1268850611    4.7691796638    6.3550949404
H       22.4897799492    3.4303361772    7.4436269995
H       16.8994580935    3.3431123276    6.5035849917
H       14.6035392549   -0.8779243502    2.3666948360
H       20.2919978585   -3.6658265488    2.0662109704
H       22.7747920936    1.4210665759    4.9484134503
H       24.8467452719   -1.0385072279    3.7154540169
H       24.2846500153   -0.0126879852    5.0336813465
H       24.4314873646   -1.7545102572    5.2671428250
H       19.0412870848   -4.7731492761    0.8606096182
H       17.3289253317   -5.0584450664    0.5184086381
H       18.2871404214   -4.0259878439   -0.5369729485
H       14.3646075909   -2.6187484619    1.2539972302
H       22.2286159939   -4.2199350128    2.5289859275
H       15.8245578640   -3.4226685714   -1.2932560926
H       14.0167959028   -3.2720810463   -0.9787652986
H       24.9104994395   -3.0355439127    3.3926417694
H       24.5114595258   -4.7931211258    2.9807373999
75   
Iteration 6 Energy -1958.45331285
C       17.3160923382    2.5460509073    5.9246406062
C       21.7309683639    0.9655535299    4.8938612760
C       19.8851473655   -2.7273680120    2.4772048387
C       15.5314111080   -0.6680526901    2.8085460997
C       18.6879690747    2.3766604145    5.9762731191
C       19.6142270488    3.3348974526    6.5519862667
C       20.8596758464    2.9919962353    6.0817435816
C       20.6971209811    1.7696702748    5.3237470557
C       22.1616698709    3.6319490814    6.4542922236
C       19.3125861706    4.4106267573    7.5659301201
C       18.3126702760    3.9904314965    8.6956916029
C       17.3015510260    5.0703584016    9.0095890842
O       17.2891093548    5.7488971923    9.9877490434
O       16.2754524626    5.2136185101    8.0448464006
C       21.5992948791   -0.3097884525    4.3618980933
C       22.7211903257   -1.1653036520    4.0944439931
C       22.1788479182   -2.2279014402    3.3853092998
C       20.7553121694   -1.9567518900    3.2240116404
C       24.1286919658   -0.9544301758    4.5520125696
C       22.8069394861   -3.4666571417    2.9553277679
C       24.0942806977   -3.8554816510    3.0741747242
C       18.5672241752   -2.3959165167    2.2275275435
C       17.7196495407   -3.1323485816    1.3196156369
C       16.4790449206   -2.5269134878    1.3967943569
C       16.5843950296   -1.4418605258    2.3543059950
C       18.1091384119   -4.3072243834    0.4818512436
C       15.2598765172   -2.8359890525    0.6483659436
C       15.3827020563   -3.2750743859   -0.6095067177
C       15.6087677705    0.3046394451    3.7852366893
C       14.4773241016    1.0116053677    4.3507835769
C       15.0106898011    1.9427490970    5.2091839677
C       16.4432792846    1.7812746824    5.1816655200
C       13.0273085187    0.8150329869    4.0337505383
C       14.2737700463    2.9553057022    6.0257630642
C       13.9616948981    2.4449348531    7.4583913081
C       12.9197291810    3.3112484243    8.1500468008
O       11.8079944423    2.9415263316    8.4287156515
O       13.2954414854    4.6045600479    8.3938890766
N       19.3596363783    1.4121406947    5.2590268442
N       20.3974956521   -0.7984239867    3.8620980743
N       17.8769919520   -1.3661833621    2.8402287285
N       16.8046424482    0.7929725173    4.3004534059
Fe      18.6022030023    0.0088579004    4.0621036897
H       16.6607716654    5.2114665025    7.1506071642
H       14.2534220448    4.7346318487    8.2463512993
H       17.7791614773    3.0812414746    8.4071484564
H       18.8555563600    3.7800916127    9.6209401301
H       20.2517098986    4.6954157630    8.0516059959
H       18.9736701841    5.3358819815    7.0666710329
H       13.5703414676    1.4253456815    7.4181969786
H       14.8901840681    2.4227972168    8.0477312207
H       14.8544996969    3.8826746619    6.0938251451
H       13.3351547465    3.2220014071    5.5231433884
H       12.8634273003    0.0574436398    3.2616454996
H       12.4593290219    0.5007041050    4.9202049934
H       12.5683149985    1.7486269046    3.6798983134
H       22.9819587379    3.3154295717    5.8022131338
H       22.1071101386    4.7258349612    6.3895313671
H       22.4512429907    3.3819240555    7.4859915538
H       16.8807344361    3.3380591060    6.5155600201
H       14.5568793688   -0.8676186744    2.3820036609
H       20.2720650778   -3.6241749525    2.0101503638
H       22.7379606557    1.3445784620    5.0180084483
H       24.8441546360   -0.9923978782    3.7209160145
H       24.2589185953    0.0110407198    5.0512693272
H       24.4303621319   -1.7338512180    5.2686476536
H       19.0228570127   -4.7943756192    0.8381999371
H       17.3071147966   -5.0561126868    0.4708982171
H       18.2904445762   -4.0189598962   -0.5635077556
H       14.2833169987   -2.7014388505    1.1210669379
H       22.1255793994   -4.1927357425    2.5090407714
H       16.3396817817   -3.4089098982   -1.1082533405
H       14.4999185217   -3.5122736300   -1.1959406804
H       24.9106236714   -3.2398713665    3.4390442409
H       24.3760804725   -4.8553297776    2.7559564209
75   
Iteration 7 Energy -1958.46677618
C       17.2977781068    2.5661844348    5.8699362501
C       21.7523993617    0.9851770094    4.9684076939
C       19.9033365280   -2.7013511686    2.4633810897
C       15.5425829164   -0.6611244771    2.7491775987
C       18.6732354015    2.4179159912    5.9175588337
C       19.5883822002    3.3416672190    6.5616394668
C       20.8506034747    2.9693159817    6.1700883790
C       20.6961505114    1.7764637175    5.3682751586
C       22.1462938007    3.5943811674    6.5872069076
C       19.2486730644    4.4567848570    7.5190350463
C       18.4050227745    4.0384800080    8.7692983867
C       17.3537790587    5.0587097380    9.1487544007
O       17.3600396398    5.6898666751   10.1616527595
O       16.2782061590    5.1859879052    8.2437749921
C       21.6153794999   -0.2483416692    4.3532573802
C       22.7057304324   -1.1495056412    4.0819075177
C       22.1808620271   -2.2266658135    3.3912422534
C       20.7672802986   -1.9396059907    3.2279972738
C       24.1180909765   -0.9433855002    4.5234080358
C       22.8103019213   -3.4590224879    2.9406826994
C       24.0956378180   -3.8237586898    3.0461354579
C       18.5774649107   -2.3938184246    2.2213411095
C       17.7221276701   -3.1386097600    1.3262237226
C       16.4846746155   -2.5293576711    1.3813554293