135  
Iteration 0 Energy -4243.18832524
C       10.8986420000   16.9041560000    2.4260030000
C       11.7957150000   16.1819690000    1.6041700000
C       13.1035320000   16.4946740000    2.0340750000
C       13.0199830000   17.3998200000    3.1065590000
C       11.6638700000   17.6576600000    3.3617680000
C        9.6251140000   16.4626500000    2.6994410000
C        9.1981900000   15.3608850000    1.9019130000
H        8.2825240000   15.1054010000    1.9292570000
C       10.0616970000   14.6478820000    1.0891950000
H        9.7265320000   13.9162770000    0.5833340000
C       11.4525810000   14.9890780000    0.9950110000
C       12.5720500000   14.1762360000    0.6213120000
H       12.4262010000   13.4264990000    0.0562070000
C       13.8615160000   14.4425520000    1.0542550000
H       14.5656510000   13.8550550000    0.8111990000
C       14.1524910000   15.6003580000    1.8700120000
C       15.2453980000   15.8169910000    2.7678000000
H       16.0458810000   15.3243880000    2.6341190000
C       15.1869610000   16.7169570000    3.8266130000
H       15.9468770000   16.8290410000    4.3856420000
C       13.9996390000   17.4803510000    4.0894170000
C       13.5724730000   18.0751480000    5.3153310000
H       14.2155160000   18.2889550000    5.9806970000
C       12.2223970000   18.3482930000    5.5507910000
H       11.9746460000   18.7646040000    6.3680670000
C       11.2021740000   18.0271120000    4.6104690000
C        9.7861760000   17.7657410000    4.8611200000
C        9.0050110000   16.9941050000    3.9132020000
C        7.6602480000   16.6696280000    4.2352510000
H        7.1355270000   16.1555970000    3.6321680000
C        7.1229710000   17.0948870000    5.4125530000
C        7.8908550000   17.8498030000    6.3376850000
C        9.1962580000   18.1627430000    6.0779190000
H        9.7048000000   18.6468690000    6.7159410000
C        5.7579240000   16.8791960000    6.0520940000
H        5.0081500000   16.6171180000    5.4444540000
C        5.6210080000   18.2538700000    6.8025300000
H        5.5901000000   19.0283310000    6.1872940000
H        4.8536070000   18.2795360000    7.4268800000
C        6.9860550000   18.1085850000    7.5271410000
H        7.2514340000   18.8517280000    8.1408570000
C        6.7774230000   16.7303790000    8.1636430000
C        6.0150920000   15.9794650000    7.2597790000
C        5.6920020000   14.6730780000    7.5210640000
H        5.2085730000   14.1611660000    6.8815230000
C        6.0819800000   14.0907600000    8.7515350000
C        6.8684580000   14.8633370000    9.6888200000
C        7.2140060000   16.1984520000    9.3439840000
H        7.7464540000   16.7183700000    9.9318760000
C        6.0447940000   12.2861180000   10.3405140000
C        6.8276490000   13.0502180000   11.2519740000
C        7.4559620000   12.1613190000   12.1421660000
C        7.0556000000   10.8565800000   11.8125220000
C        6.1935410000   10.9258080000   10.6807920000
C        5.7569580000   12.6934810000    9.0644700000
C        5.4191370000   11.6322180000    8.1545290000
H        5.0878360000   11.8512050000    7.2916800000
C        5.5652280000   10.2933360000    8.5024030000
H        5.3220650000    9.6236590000    7.8734950000
C        6.0754610000    9.8942140000    9.7860420000
C        6.7298530000    8.6676510000   10.1612600000
H        6.5897980000    7.8882450000    9.6371700000
C        7.5566560000    8.5998350000   11.2656460000
H        7.9492910000    7.7658010000   11.4935110000
C        7.8435260000    9.7548160000   12.0874790000
C        8.9958350000   10.0100650000   12.9184260000
H        9.5092070000    9.2775180000   13.2374370000
C        9.3689110000   11.2919640000   13.2571860000
H       10.1177190000   11.4179400000   13.8268480000
C        8.6570490000   12.4504760000   12.7725930000
C        9.1175380000   13.7912420000   12.6039730000
H        9.8617570000   14.0952340000   13.1083140000
C        8.5008150000   14.6601270000   11.7183370000
H        8.8403270000   15.5433750000   11.6317490000
C        7.3642020000   14.2716010000   10.9238480000
C       14.9696237200   12.3643938700    8.3223147000
C       16.1706207200   11.9034431800    8.8868841500
C       17.2686276000   11.5006131300    8.0860142000
C       17.1751782200   11.5762358400    6.7088275000
C       15.9664412700   12.0534449500    6.1122380700
C       14.8837509600   12.4268550800    6.8461586600
C       13.6974835400   11.9484950300    8.8165352300
C       13.6260407300   11.0858835800    9.8808164000
C       14.8840700800   10.5848018400   10.5229348200
C       16.1163577000   10.9759463200   10.0252633700
C       17.1569311800   10.0101588300    9.9114344100
C       17.8934604400   10.3220242900    8.6808970500
C       18.3700991300    9.3027258900    7.9243067400
C       18.2970599000    9.4037293300    6.4527588800
C       17.7257857400   10.4935955000    5.8929445400
C       16.8071639700   10.3205987700    4.7432864300
C       15.7387457800   11.2661337600    4.8699200500
C       14.4781463100   10.9519562400    4.5063089500
C       13.3193885300   11.3502150000    5.3567431600
C       13.5508421200   12.0770881800    6.4867020000
C       12.8004217900   11.7752651600    7.6913455400
C       16.9340231200    8.6567742600   10.2670872100
C       17.4615118300    7.6073262100    9.4273842400
C       18.1785782700    7.9507512400    8.2733608800
C       15.6455687700    8.2564085600   10.7755853500
C       18.0374071100    8.0826835400    5.9525228600
C       16.5544666000    9.0515773600    4.2580517300
C       14.1733809500    9.6502222100    4.0042165700
C       12.3537945500   10.2772902100    5.3329748000
C       11.8802564300   10.7364055200    7.6880171300
C       14.9511970700    5.4518765500    7.8896267400
C       13.8401350300    5.8288833600    8.6622942000
C       12.6485306500    6.3190758400    8.0714692100
C       12.5568197700    6.4162788100    6.6955202700
C       13.6711453900    6.0271917600    5.8883138600
C       14.8388872300    5.5743958700    6.4190188100
C       16.2813269300    5.8136487200    8.2576509900
C       16.5013049000    6.5376198000    9.4019291900
C       15.3444015800    6.9443120900   10.2634469800
C       14.0535137600    6.6078641100    9.8897959900
C       13.0151784700    7.5715625100   10.0369044100
C       12.1185161900    7.4091626900    8.8864346500
C       11.5537736900    8.5106958100    8.3330150600
C       11.4290373600    8.5942929700    6.8638514000
C       11.9113938600    7.5874211500    6.1015549500
C       12.6698826200    7.9098835200    4.8702059300
C       13.7376902900    6.9649183700    4.7344946400
C       14.9411139200    7.3324629300    4.2479618600
C       16.1995733800    6.8411441800    4.8799853100
C       16.1148236700    5.9773399000    5.9313568100
C       17.0217146100    6.1331157100    7.0532643700
C       13.2948554500    8.8719598500   10.5253450400
C       12.6688860800   10.0133293200    9.9007437600
C       11.8014530900    9.8102529600    8.8189786800
C       14.6429274300    9.2166794000   10.9032974700
C       11.6307004700    9.9694654200    6.5018426300
C       12.8662179800    9.2315123400    4.5173976400
C       15.1870756200    8.6890833700    3.8757065700
C       17.1623187900    7.9167277800    4.8613985300
C       17.9418799800    7.1719753500    7.0565927800
135  
Iteration 1 Energy -4243.57191868
C       10.8757126235   16.8631678045    2.4550352268
C       11.7875434979   16.1147155252    1.6583967767
C       13.1127928056   16.4085310730    2.0915237993
C       13.0251924704   17.3452734761    3.1552433529
C       11.6528787513   17.6257731663    3.3866099392
C        9.5880029817   16.4357958905    2.7158228231
C        9.1435650960   15.3074566507    1.9314114467
H        8.1307354785   14.9980371539    1.9468503163
C       10.0309595175   14.5750476970    1.1440957085
H        9.6522847816   13.7449880076    0.6061947620
C       11.4374145334   14.9073030701    1.0647816544
C       12.5603243752   14.0597916251    0.7175910316
H       12.4113972216   13.1980486035    0.1194859658
C       13.8512615480   14.3328051591    1.1631679963
H       14.6180884574   13.6473554873    0.9127779260
C       14.1614917697   15.5028741565    1.9640940094
C       15.2674127265   15.7206854337    2.8727180738
H       16.1631727703   15.1634416129    2.7761215984
C       15.1885055748   16.6477193215    3.9115950962
H       16.0312953245   16.7545771854    4.5437879226
C       13.9955456523   17.4348680985    4.1512219506
C       13.5527255586   18.0615815140    5.3735531393
H       14.2490078027   18.2984719818    6.1353557764
C       12.2019817899   18.3505330341    5.5896061561
H       11.9358357956   18.8148722116    6.5033405457
C       11.1812448931   18.0230206659    4.6248169483
C        9.7510638798   17.7825934537    4.8609164160
C        8.9650624051   17.0024957342    3.9182650321
C        7.6127469487   16.6965919623    4.2338563446
H        7.0465589431   16.1167351531    3.5531993991
C        7.0667317126   17.1434406945    5.4141566122
C        7.8369878369   17.9065104613    6.3356799122
C        9.1534630885   18.2121272979    6.0752156904
H        9.7284131378   18.7567061991    6.7767206437
C        5.6902652237   16.9367881285    6.0561410059
H        4.8898450108   16.6479705469    5.4064461103
C        5.5528291515   18.3207437632    6.8021080554
H        5.5220556459   19.1523937909    6.1274224543
H        4.7226133783   18.3479351928    7.4785140478
C        6.9305753838   18.1811214458    7.5374796721
H        7.2208404209   18.9778833395    8.1913063819
C        6.7284716345   16.7994788868    8.1837998551
C        5.9570522565   16.0377687886    7.2726328648
C        5.6382603349   14.7217607762    7.5321208893
H        5.0974260672   14.1360297416    6.8359290149
C        6.0530569747   14.1344017961    8.7557621126
C        6.8451179796   14.9217231292    9.6878630133
C        7.1812266884   16.2660186157    9.3691740187
H        7.7769813950   16.8350019064   10.0328524809
C        6.0691835837   12.2984970244   10.3164203124
C        6.8583478886   13.0718683676   11.2301432800
C        7.5212514093   12.1639725767   12.0977717337
C        7.1409115888   10.8406449802   11.7478626634
C        6.2513918869   10.9256204488   10.6348487523
C        5.7490079819   12.7224671443    9.0430336896
C        5.4088076504   11.6690244415    8.1087498905
H        5.0311134068   11.9107379471    7.1497459833
C        5.5836279714   10.3217871903    8.4275438759
H        5.3232253955    9.5939774153    7.7032998741
C        6.1270182990    9.9064154137    9.7041599473
C        6.8125896334    8.6723436265   10.0440141988
H        6.6702432157    7.8141832229    9.4402331319
C        7.6726771154    8.5895111420   11.1345263194
H        8.1437406435    7.6648056407   11.3464355105
C        7.9531570892    9.7403005190   11.9775371476
C        9.1213711954   10.0054942076   12.7969569207
H        9.7257861556    9.1968862270   13.1166289590
C        9.4824434704   11.2997612194   13.1587182258
H       10.3392457863   11.4370717725   13.7659596898
C        8.7326286654   12.4608981397   12.7126747494
C        9.1701752810   13.8285748445   12.5623399691
H       10.0134318454   14.1750973446   13.1007828704
C        8.5194690295   14.7125709214   11.7007640930
H        8.8971241844   15.6979623501   11.6136072345
C        7.3707086181   14.3149060765   10.9153982612
C       14.9831978876   12.3975974932    8.3384520309
C       16.1701177660   11.9266620037    8.9144069597
C       17.2862636015   11.5190241268    8.0905578637
C       17.1933668030   11.6018465361    6.6965098693
C       15.9755057474   12.0923773939    6.0943961304
C       14.8899364273   12.4735907915    6.8677625220
C       13.6895670820   11.9746747780    8.8442978693
C       13.6145359699   11.0956080685    9.9208607678
C       14.8562179309   10.5967795982   10.5528099489
C       16.0987670175   10.9958891624   10.0548537204
C       17.1684456591   10.0260779873    9.9285843846
C       17.9090090446   10.3383111921    8.6978769247
C       18.3956318797    9.3055005315    7.9138121883
C       18.3142567140    9.4045656162    6.4384113247
C       17.7307406232   10.5197032032    5.8623832993
C       16.8155634133   10.3535373510    4.7186133924
C       15.7378336143   11.3134616592    4.8551170627
C       14.4454626397   10.9818187641    4.4830449154
C       13.2983492268   11.3841187043    5.3352024832
C       13.5317367797   12.1172571240    6.4922540529
C       12.7826591777   11.8086470414    7.7077885555
C       16.9532622242    8.6801217798   10.2845168859
C       17.4787619529    7.6095829359    9.4472369498
C       18.1922715218    7.9290935038    8.2810582984
C       15.6555385020    8.2637002631   10.7978610427
C       18.0449349584    8.0679215661    5.9294451771
C       16.5541729637    9.0719488417    4.2237271347
C       14.1555181307    9.6544469888    3.9674621274
C       12.3276449057   10.3028631343    5.3162017560
C       11.8542790020   10.7667632197    7.7010395002
C       14.9275279703    5.4265094969    7.8986560119
C       13.8327642614    5.8112089775    8.6830414448
C       12.6196776457    6.3098200280    8.0747829863
C       12.5241193040    6.4049475841    6.6817779798
C       13.6459975320    6.0045230660    5.8646909257
C       14.8221028845    5.5378602516    6.4313040051
C       16.2808472357    5.7932188341    8.2755310023
C       16.5068998752    6.5299646218    9.4344517058
C       15.3656205649    6.9346980447   10.2849189421
C       14.0641978445    6.5911733805    9.9119467563
C       12.9952845843    7.5596368940   10.0543719329
C       12.0937297642    7.3989957450    8.9046839842
C       11.5151395162    8.5184585974    8.3298314909
C       11.3974997661    8.6072953375    6.8559707151
C       11.8890346765    7.5788792509    6.0707134206
C       12.6440883661    7.8959295821    4.8447774283
C       13.7220311478    6.9356896248    4.7130679658
C       14.9555232797    7.3227712799    4.2157311703
C       16.2028163138    6.8261708180    4.8490298068
C       16.1204177128    5.9504734716    5.9249572186
C       17.0284331508    6.1093745518    7.0578902267
C       13.2676171950    8.8518617331   10.5453778413
C       12.6438021069   10.0150478670    9.9278611378
C       11.7774763007    9.8394854476    8.8372959639
C       14.6263805827    9.2110106081   10.9281097222
C       11.6076020972    9.9997256645    6.4883150264
C       12.8476075622    9.2317531654    4.4849517693
C       15.1851498045    8.7068793232    3.8373653163
C       17.1713461369    7.9092393682    4.8362606485
C       17.9563216801    7.1518376332    7.0577563408
135  
Iteration 2 Energy -4243.59044450
C       10.8703993415   16.7827809930    2.5358073314
C       11.7642719078   15.9803669532    1.7671133291
C       13.0845580243   16.2518227377    2.2279935380
C       13.0088935424   17.2190687902    3.2716595512
C       11.6397154819   17.5514123027    3.4725837283
C        9.5638819435   16.4046681262    2.7803810066
C        9.1187601364   15.2668347392    2.0055978001
H        8.0783848623   14.9963789244    2.0394726150
C        9.9881478039   14.4822287484    1.2498602810
H        9.6036406683   13.6254336569    0.7239392928
C       11.4021248900   14.7681246646    1.1920736031
C       12.5102480991   13.8814182523    0.8958298705
H       12.3296039148   12.9883017058    0.3227871559
C       13.7976245855   14.1316470580    1.3612342717
H       14.5774631611   13.4172049689    1.1627007444
C       14.1074781095   15.3143508082    2.1422038140
C       15.1972514415   15.5304099488    3.0710607667
H       16.0731196179   14.9110795994    2.9853690748
C       15.1347681833   16.4794988233    4.0883675900
H       15.9642460402   16.5830987757    4.7662671556
C       13.9606775428   17.3049047057    4.2822429857
C       13.5048474075   17.9751403399    5.4774035562
H       14.2120662783   18.1951718737    6.2579237848
C       12.1642181198   18.3080852868    5.6670010162
H       11.8868107315   18.7906216751    6.5874841321
C       11.1485347037   17.9910601584    4.6879800844
C        9.7067137798   17.7968054649    4.8994513922
C        8.9249326606   17.0151269844    3.9557515490
C        7.5609873557   16.7433616966    4.2497789015
H        6.9824698535   16.1513154160    3.5638004878
C        7.0020813604   17.2100665024    5.4169746304
C        7.7662945624   17.9744472630    6.3387774978
C        9.0883780568   18.2613681559    6.0901561953
H        9.6699628869   18.8160140018    6.8038588946
C        5.6176308161   17.0142532690    6.0495015715
H        4.8145235742   16.7144682017    5.3870115854
C        5.4760673507   18.3993471079    6.7902207401
H        5.4493017309   19.2414959061    6.1043693422
H        4.6297956602   18.4281284050    7.4706513313
C        6.8521123274   18.2598883188    7.5358690328
H        7.1500048911   19.0633295065    8.1992493344
C        6.6518298851   16.8769824185    8.1759495657
C        5.8860385394   16.1118302565    7.2639622270
C        5.5889435228   14.7936928696    7.5282984590
H        5.0396815337   14.2116114839    6.8105783791
C        6.0340926852   14.1908656764    8.7358166371
C        6.8229559242   14.9699357317    9.6774110454
C        7.1079043430   16.3226143774    9.3500078562
H        7.7104280596   16.9038396696   10.0234593092
C        6.1410309213   12.3087864790   10.2462519113
C        6.9279668555   13.0776855819   11.1691873225
C        7.6476049626   12.1724185597   11.9976388674
C        7.3010373671   10.8490918012   11.6033829231
C        6.3787589020   10.9322186719   10.5175182043
C        5.7777054026   12.7650739569    8.9945079778
C        5.4502680879   11.7253202555    8.0428203078
H        5.0494302597   11.9970107452    7.0826177058
C        5.6757479568   10.3758266655    8.3090409236
H        5.4347836097    9.6490905066    7.5525303338
C        6.2648256524    9.9383628817    9.5552936166
C        7.0026587510    8.7233498340    9.8417262566
H        6.8807495673    7.8710209365    9.1962158763
C        7.8973460590    8.6409036644   10.9030790243
H        8.4275296709    7.7178345497   11.0616158090
C        8.1593485805    9.7715059485   11.7760675800
C        9.3365281846   10.0520026364   12.5777595122
H        9.9924985060    9.2424931464   12.8470889549
C        9.6659702497   11.3432921508   12.9770208398
H       10.5574111239   11.4971581695   13.5602461408
C        8.8624431333   12.4886244747   12.5933716081
C        9.2435414517   13.8763166540   12.4751884413
H       10.1110848581   14.2336568037   13.0020377121
C        8.5422388300   14.7606106010   11.6568597706
H        8.9036632753   15.7709856086   11.5823093028
C        7.3908131513   14.3477818024   10.8829654053
C       14.9807529048   12.4026496254    8.3388517760
C       16.1590358870   11.9273473912    8.9218149524
C       17.2802406343   11.5202758029    8.0911759182
C       17.1857549486   11.6074115727    6.6981884382
C       15.9646057067   12.1032295868    6.0902195389
C       14.8837416483   12.4870598784    6.8790297177
C       13.6828083707   11.9805819548    8.8501506209
C       13.6089527826   11.0997784402    9.9288560891
C       14.8399082493   10.6017494900   10.5531439108
C       16.0830925109   11.0012621651   10.0574419423
C       17.1603953608   10.0312398657    9.9255936541
C       17.9005653224   10.3452342770    8.7018384381
C       18.3908760285    9.3142737326    7.9064783887
C       18.3031205129    9.4118520175    6.4418063482
C       17.7146260674   10.5302364687    5.8597686377
C       16.8045099467   10.3668652246    4.7224387610
C       15.7256858660   11.3327299049    4.8610489617
C       14.4270969189   10.9957488213    4.4890700363
C       13.2923732003   11.3978587346    5.3342760691
C       13.5225362162   12.1296024710    6.4976713585
C       12.7764409912   11.8175499751    7.7137451525
C       16.9466523541    8.6935881157   10.2810530030
C       17.4700276653    7.6190094460    9.4445745007
C       18.1800194732    7.9296876234    8.2789487446
C       15.6481274557    8.2736497870   10.7954502254
C       18.0277858784    8.0756753993    5.9264413021
C       16.5385176868    9.0874071225    4.2251384227
C       14.1429538780    9.6630348292    3.9712679129
C       12.3192363529   10.3156784531    5.3231650258
C       11.8456564703   10.7771729217    7.7081539060
C       14.9093030098    5.4378082555    7.8925571852
C       13.8247831822    5.8247531410    8.6849034263
C       12.6051807868    6.3248513392    8.0729879042
C       12.5103294494    6.4193492848    6.6806223862
C       13.6338804564    6.0161165444    5.8547392541
C       14.8077946873    5.5432115116    6.4347193889
C       16.2680356342    5.8020032739    8.2736619991
C       16.4939466867    6.5375271084    9.4366301128
C       15.3629654036    6.9409005286   10.2797920443
C       14.0609451612    6.5978113342    9.9094632788
C       12.9835511002    7.5665070197   10.0511589656
C       12.0822820243    7.4060419084    8.9083298230
C       11.4981625980    8.5266880761    8.3258727539
C       11.3878673602    8.6192827439    6.8619702878
C       11.8827999241    7.5904112734    6.0668944813
C       12.6328265413    7.9067960132    4.8479162639
C       13.7117048435    6.9405730827    4.7141347606
C       14.9509330903    7.3341743248    4.2164030370
C       16.1853214400    6.8369160948    4.8424507919
C       16.1077897561    5.9588566278    5.9220627490
C       17.0140265796    6.1180617991    7.0558165426
C       13.2548083704    8.8496189502   10.5436755627
C       12.6329331223   10.0182798383    9.9301974173
C       11.7691121952    9.8541656271    8.8414264316
C       14.6152220286    9.2110061344   10.9271026821
C       11.6031695671   10.0128271661    6.4901761838
C       12.8403767134    9.2415251606    4.4876704893
C       15.1744287330    8.7246184974    3.8399146715
C       17.1574643265    7.9196631718    4.8385333062
C       17.9444398432    7.1589528337    7.0576461155
135  
Iteration 3 Energy -4243.59770194
C       10.8295909261   16.6641119987    2.6616878936
C       11.7322522278   15.8109333747    1.9641979119
C       13.0529264215   16.0344328597    2.4544704313
C       12.9782522721   17.0410043118    3.4590328637
C       11.6122563335   17.4269742693    3.5917408813
C        9.5019496351   16.3383827211    2.8673579161
C        9.0336757663   15.1892112049    2.1199970584
H        7.9816990690   14.9187436159    2.1177711858
C        9.9120270047   14.3592877535    1.4302288973
H        9.5030112868   13.4859138029    0.9287081782
C       11.3385755339   14.5942916114    1.4190824708
C       12.4178957791   13.6518701263    1.1961233135
H       12.2114572277   12.7303429089    0.6575858676
C       13.6978500102   13.8663778286    1.6932156025
H       14.4476292933   13.0931263891    1.5472370193
C       14.0416713904   15.0580061194    2.4425963270
C       15.1135849588   15.2604502841    3.3985616005
H       15.9775610615   14.6005636480    3.3902246545
C       15.0442709946   16.2487629246    4.3730197321
H       15.8606088176   16.3276117553    5.0863012404
C       13.8966662344   17.1260467293    4.4989681991
C       13.4240468282   17.8520286301    5.6556458261
H       14.1069622751   18.0687850425    6.4731464601
C       12.0921049194   18.2340481937    5.7826788257
H       11.7955064158   18.7460574449    6.6934123226
C       11.0997252255   17.9235466506    4.7739725112
C        9.6454334146   17.7870159237    4.9427520305
C        8.8532193841   17.0069657346    4.0042162888
C        7.4774046616   16.7848966164    4.2765280003
H        6.8883097708   16.1854304228    3.5895031706
C        6.9149198663   17.2811908414    5.4293564579
C        7.6867894620   18.0438265148    6.3435472787
C        9.0165036817   18.3017790872    6.1065480683
H        9.6071315947   18.8604821168    6.8259463165
C        5.5262438768   17.1089651931    6.0608614043
H        4.7175999001   16.8039402166    5.3959982615
C        5.3946457934   18.4946912801    6.7957543190
H        5.3705931791   19.3411974320    6.1017221435
H        4.5436549037   18.5313852399    7.4835911538
C        6.7732159832   18.3504448536    7.5385077909
H        7.0858501312   19.1569067462    8.2026468906
C        6.5817332760   16.9682840353    8.1791514309
C        5.8068417182   16.2018507203    7.2688326553
C        5.5229960612   14.8777062023    7.5158729356
H        4.9624180354   14.2877299484    6.7973424498
C        6.0114263830   14.2521232661    8.6908399607
C        6.8058312928   15.0492513082    9.6144046386
C        7.0680554258   16.4152430453    9.3407103560
H        7.6848272563   16.9932503333   10.0224105492
C        6.2505908791   12.3319717637   10.1316462417
C        7.0412181375   13.1121569540   11.0407766734
C        7.8346163063   12.2065231876   11.8010599149
C        7.5379558371   10.8775808018   11.3792796841
C        6.5617477324   10.9583020467   10.3447323035
C        5.8138145820   12.8110486522    8.9119670583
C        5.4879173042   11.7893430113    7.9406305774
H        5.0412325206   12.0696276267    6.9912396427
C        5.7825834641   10.4452321512    8.1514392091
H        5.5469978227    9.7322851426    7.3654496144
C        6.4466495067    9.9920868340    9.3520554640
C        7.2505935477    8.8036778359    9.5610154924
H        7.1426798393    7.9640589788    8.8792046158
C        8.2020648698    8.7266487958   10.5719309172
H        8.7988734676    7.8228323717   10.6639844038
C        8.4535360321    9.8365379124   11.4711091706
C        9.6520470186   10.1473177973   12.2257495148
H       10.3733047058    9.3599493190   12.4296841831
C        9.9358961140   11.4397606046   12.6524789256
H       10.8638110599   11.6169992707   13.1902238594
C        9.0617621575   12.5571837764   12.3513681948
C        9.3750448571   13.9653266411   12.2673011279
H       10.2656783153   14.3446662269   12.7615586604
C        8.6020110697   14.8461836873   11.5145444771
H        8.9244098345   15.8811973232   11.4462326259
C        7.4365058818   14.4097008872   10.7778617040
C       14.9708700223   12.4130926252    8.3407414750
C       16.1443959268   11.9342747362    8.9286926142
C       17.2695112986   11.5277116780    8.0925802191
C       17.1738496887   11.6185952401    6.7009218042
C       15.9492921483   12.1186264641    6.0879128996
C       14.8714005493   12.5039165718    6.8873434475
C       13.6700904426   11.9916983172    8.8557202090
C       13.5980492783   11.1096111266    9.9360339656
C       14.8235861612   10.6111411538   10.5550901847
C       16.0673295703   11.0110863101   10.0603818656
C       17.1489309661   10.0391243631    9.9245435085
C       17.8884671750   10.3558841688    8.7048760299
C       18.3816434315    9.3265400761    7.9013658539
C       18.2896937059    9.4238283910    6.4453683445
C       17.6974984137   10.5447878640    5.8593203972
C       16.7908348787   10.3830049445    4.7249064099
C       15.7108639012   11.3542530027    4.8652023166
C       14.4077745528   11.0140484148    4.4935451501
C       13.2810686922   11.4155307821    5.3346455309
C       13.5086080138   12.1460225978    6.5028331507
C       12.7643054774   11.8309756970    7.7195337092
C       16.9352106318    8.7055811790   10.2799127407
C       17.4576459985    7.6291852667    9.4422427819
C       18.1654406819    7.9352179326    8.2771832129
C       15.6353938424    8.2845455678   10.7955349577
C       18.0098966993    8.0881594536    5.9240144093
C       16.5212602695    9.1055318351    4.2255958951
C       14.1264836817    9.6774680077    3.9737417758
C       12.3045387031   10.3319673211    5.3294968206
C       11.8314902762   10.7913869311    7.7151196816
C       14.8906531441    5.4507570799    7.8866796376
C       13.8122670484    5.8389632881    8.6856464540
C       12.5874424215    6.3406529447    8.0713902390
C       12.4929320027    6.4354039739    6.6800809871
C       13.6184038746    6.0308342340    5.8462886610
C       14.7911714033    5.5531944873    6.4344792621
C       16.2530886244    5.8127145842    8.2703665438
C       16.4782022116    6.5463694319    9.4369514251
C       15.3527009922    6.9489759870   10.2763528438
C       14.0499292606    6.6064511968    9.9075449877
C       12.9675842378    7.5769906197   10.0500879865
C       12.0663180503    7.4162971602    8.9111149321
C       11.4778373511    8.5381805734    8.3242788029
C       11.3724537130    8.6338723558    6.8684484083
C       11.8699067292    7.6051887128    6.0655943319
C       12.6159989033    7.9228104078    4.8500842928
C       13.6958618161    6.9514244763    4.7138633250
C       14.9389862660    7.3493931506    4.2159606828
C       16.1652087589    6.8513555088    4.8365855343
C       16.0917537326    5.9707806604    5.9182313984
C       16.9973841340    6.1295549251    7.0525918633
C       13.2392914912    8.8550761828   10.5450186532
C       12.6177780142   10.0274459569    9.9337966561
C       11.7549715844    9.8707712166    8.8464809078
C       14.6019234396    9.2162103280   10.9287643002
C       11.5914791753   10.0285256559    6.4932818879
C       12.8265731495    9.2565465752    4.4900089225
C       15.1592991477    8.7446042506    3.8409747076
C       17.1417119229    7.9343745190    4.8395244972
C       17.9298699163    7.1695471008    7.0565993415
135  
Iteration 4 Energy -4243.60156581
C       10.8010757882   16.5009658197    2.8366344184
C       11.6683390063   15.5579160002    2.2128974942
C       12.9720845927   15.7275149129    2.7624197453
C       12.9171283960   16.7833995852    3.7184647628
C       11.5759037861   17.2637486128    3.7739656383
C        9.4486859822   16.2632907813    2.9923188165
C        8.9420155757   15.1120497601    2.2737085336
H        7.8722622486   14.9071979532    2.2551415935
C        9.7893154228   14.1971497425    1.6565425454
H        9.3507065900   13.3181725276    1.1832003811
C       11.2260480528   14.3423018636    1.7020829641