86   
Iteration 0 Energy -2032.91375643
C       -0.1457000000    3.4391000000   -0.4954080000
C       -1.3084000000    3.2024000000   -1.2295000000
C       -2.4754000000    2.9622000000   -0.5031200000
C       -2.4704000000    2.9307000000    0.9030310000
C       -1.3059000000    3.1406000000    1.6370000000
C       -0.1512000000    3.4196000000    0.9098290000
C       -3.9079000000    2.6171000000   -0.9370840000
C       -4.1096000000    1.1538000000   -0.5273690000
C       -4.0857000000    1.1262000000    0.8796120000
C       -3.8917000000    2.5718000000    1.3408200000
C       -4.1841000000   -0.0190000000   -1.2759900000
C       -4.2182000000   -1.2190000000   -0.5664450000
C       -4.1782000000   -1.2440000000    0.8391140000
C       -4.1081000000   -0.0720000000    1.5896300000
C       -4.6903000000    3.3071000000    0.2218360000
C        1.2792500000    3.8128000000   -0.9184090000
C        1.2558600000    3.7999000000    1.3616200000
C        2.2042100000    2.6827000000    0.9304450000
C        2.2306600000    2.6927000000   -0.4752950000
C        3.0190400000    1.8343000000    1.6756400000
C        3.9169200000    1.0457000000    0.9604180000
C        3.9635500000    1.0647000000   -0.4439860000
C        3.0991500000    1.8674000000   -1.1907500000
C        1.5908300000    4.8301000000    0.2310160000
C        5.1131600000    0.1317000000   -0.8524270000
C        4.7038800000   -1.2840000000   -0.4479680000
C        4.6339100000   -1.2970000000    0.9591090000
C        5.0262200000    0.1023000000    1.4278700000
C        4.4059700000   -2.4210000000   -1.1821600000
C        4.0059200000   -3.5780000000   -0.4920020000
C        3.9129700000   -3.5810000000    0.8993910000
C        4.2313200000   -2.4330000000    1.6435700000
C        6.0898700000    0.4333000000    0.3309220000
C       -4.1306000000   -2.7170000000    1.2496200000
C       -2.7691000000   -3.2250000000    0.7681360000
C       -2.8061000000   -3.2000000000   -0.6381210000
C       -4.1913000000   -2.6770000000   -1.0302500000
C       -1.6238000000   -3.6100000000    1.4456700000
C       -0.5047000000   -3.9960000000    0.6909320000
C       -0.5408000000   -3.9720000000   -0.7023650000
C       -1.6969000000   -3.5620000000   -1.3854500000
C       -5.0272000000   -3.3180000000    0.1218760000
H       -1.3075000000    3.2223000000   -2.3170200000
H       -1.3023000000    3.1118000000    2.7238300000
H       -4.1784000000    2.8752000000   -1.9617000000
H       -4.1459000000    2.7871000000    2.3792000000
H       -4.2005000000   -0.0039000000   -2.3636900000
H       -4.0558000000   -0.0930000000    2.6754500000
H       -4.5472000000    4.3916000000    0.2429120000
H       -5.7545000000    3.0519000000    0.2234420000
H        1.3972100000    4.1575000000   -1.9464700000
H        1.3512800000    4.1305000000    2.3965900000
H        2.9918600000    1.8264000000    2.7623200000
H        3.1362000000    1.8864000000   -2.2775200000
H        0.9160300000    5.6921000000    0.2289840000
H        2.6376300000    5.1498000000    0.2437630000
H        5.4910300000    0.2524000000   -1.8683500000
H        5.3239800000    0.1939000000    2.4728600000
H        4.4788100000   -2.4280000000   -2.2672200000
H        3.7660000000   -4.4790000000   -1.0486300000
H        3.5969100000   -4.4840000000    1.4145100000
H        4.1578400000   -2.4420000000    2.7277100000
H        6.4120600000    1.4784000000    0.3576730000
H        6.9497500000   -0.2430000000    0.3536960000
H       -4.3914000000   -2.9390000000    2.2848500000
H       -4.5064000000   -2.8650000000   -2.0573200000
H       -1.5808000000   -3.6100000000    2.5313300000
H        0.4062000000   -4.2990000000    1.1988800000
H        0.3414900000   -4.2610000000   -1.2661600000
H       -1.7124000000   -3.5330000000   -2.4719600000
H       -6.0556000000   -2.9450000000    0.1554640000
H       -5.0069000000   -4.4120000000    0.1020040000
C        1.0952415200    0.4408522600   -2.4672193200
C        1.6996206900   -0.6455181300   -1.8168135800
C        1.0716316700   -1.2425259300   -0.7372189200
C       -0.1668133400   -0.7534469000   -0.2945096300
C       -0.7819489800    0.3195377300   -0.9537173700
C       -0.1506981400    0.9148866700   -2.0331276200
C        1.7469620300    1.0632121100   -3.5746084700
C       -0.8082097800   -1.3531916200    0.8318257100
H        2.6575016400   -1.0165732900   -2.1587625400
H        1.5314956000   -2.0845353600   -0.2362784000
H       -1.7426544400    0.6857862800   -0.6155202500
H       -0.6196190300    1.7464774400   -2.5417076000
N        2.2770658700    1.5739755700   -4.4753174800
N       -1.3281886400   -1.8370560800    1.7521754500
86   
Iteration 1 Energy -2032.95786678
C       -0.1229503208    3.4342153324   -0.4943709086
C       -1.2872999468    3.1903411846   -1.2239546818
C       -2.4538092286    2.9488050750   -0.4964824039
C       -2.4479940134    2.9162283939    0.9103143382
C       -1.2796778777    3.1280808402    1.6396138907
C       -0.1267117089    3.4147823184    0.9105729856
C       -3.8878869870    2.6066116806   -0.9293398868
C       -4.1138664968    1.1454772119   -0.5200008842
C       -4.0905269231    1.1127599600    0.8873591760
C       -3.8712638339    2.5586007949    1.3491580359
C       -4.2119141328   -0.0265000339   -1.2675973085
C       -4.2799626989   -1.2300044023   -0.5646375070
C       -4.2415125642   -1.2659329941    0.8411158360
C       -4.1381087870   -0.0921188817    1.5914393330
C       -4.6614611328    3.3010413417    0.2305410640
C        1.2994342362    3.8182088098   -0.9202232158
C        1.2790377534    3.8069094611    1.3598133451
C        2.2406020713    2.7025997450    0.9283841909
C        2.2660524356    2.7104494508   -0.4773695199
C        3.0669044486    1.8677269755    1.6749027436
C        3.9754817317    1.0914403472    0.9610209096
C        4.0215073160    1.1073684634   -0.4431662054
C        3.1453453745    1.8956067653   -1.1914903934
C        1.6018762576    4.8386584562    0.2278374848
C        5.1846243209    0.1902171547   -0.8491233478
C        4.7967831637   -1.2303252700   -0.4399936604
C        4.7275925806   -1.2390148162    0.9669763285
C        5.0986615021    0.1667308776    1.4308768625
C        4.5157480335   -2.3745301999   -1.1692610289
C        4.1335452577   -3.5342739980   -0.4736798435
C        4.0412768487   -3.5330266352    0.9176475739
C        4.3426495768   -2.3774763331    1.6563976390
C        6.1568013155    0.5101784501    0.3327910135
C       -4.2406553658   -2.7467996139    1.2405876820
C       -2.9010683275   -3.3071709939    0.7554627708
C       -2.9344373419   -3.2672883547   -0.6504768922
C       -4.2971731508   -2.6857358891   -1.0393452546
C       -1.7735395734   -3.7474764676    1.4306011991
C       -0.6697316797   -4.1732854364    0.6744202399
C       -0.7027592888   -4.1327711022   -0.7179806219
C       -1.8393703479   -3.6676724454   -1.3990021263
C       -5.1554205311   -3.3049684578    0.1070289578
H       -1.2894850840    3.2114592602   -2.3113742929
H       -1.2730130173    3.1003752978    2.7263887551
H       -4.1570931639    2.8686338724   -1.9533690362
H       -4.1237780324    2.7762741827    2.3874563094
H       -4.2289711264   -0.0081963031   -2.3552093538
H       -4.0874732385   -0.1165847325    2.6772669268
H       -4.5078906690    4.3841916091    0.2521136596
H       -5.7279187180    3.0556301440    0.2325872100
H        1.4125269240    4.1639285790   -1.9486177586
H        1.3726079141    4.1396298568    2.3942460585
H        3.0405287442    1.8621365465    2.7615668942
H        3.1822429801    1.9129773423   -2.2779987469
H        0.9182641265    5.6937358214    0.2258788045
H        2.6454471326    5.1689957902    0.2387394119
H        5.5605862508    0.3135140377   -1.8655150731
H        5.3952361225    0.2661378598    2.4755076160
H        4.5881585247   -2.3851015313   -2.2543110870
H        3.9069467343   -4.4411776058   -1.0262308833
H        3.7391496371   -4.4383887955    1.4369011583
H        4.2700237192   -2.3826007332    2.7406478533
H        6.4632646693    1.5601488018    0.3560337139
H        7.0268206026   -0.1530020274    0.3574668764
H       -4.5109143755   -2.9681758526    2.2735903631
H       -4.6181515667   -2.8538684380   -2.0679731684
H       -1.7328758002   -3.7608975130    2.5161885335
H        0.2264349358   -4.5198036110    1.1808681183
H        0.1676307204   -4.4528776296   -1.2834225648
H       -1.8513159035   -3.6277464474   -2.4851258282
H       -6.1697795086   -2.8954002756    0.1425815391
H       -5.1741154013   -4.3987348373    0.0786154082
C        1.0950272931    0.4367995711   -2.4700290013
C        1.7014015327   -0.6487236919   -1.8193763272
C        1.0760834883   -1.2431858839   -0.7368132673
C       -0.1609696273   -0.7474856309   -0.2963655800
C       -0.7782935892    0.3209689981   -0.9557585191
C       -0.1493233876    0.9116960878   -2.0365173685
C        1.7436231755    1.0611723327   -3.5775291370
C       -0.8043570732   -1.3311087998    0.8334868670
H        2.6587965409   -1.0197038293   -2.1624693390
H        1.5358885900   -2.0838348266   -0.2330267983
H       -1.7378555358    0.6876225641   -0.6150791949
H       -0.6181532341    1.7418657509   -2.5459568151
N        2.2729330051    1.5786460475   -4.4746404637
N       -1.3257734717   -1.7922356075    1.7633581113
86   
Iteration 2 Energy -2033.01002446
C       -0.1057015711    3.5901095211   -0.4557387034
C       -1.2883217330    3.3648058585   -1.1671993618
C       -2.4475350749    3.0544320907   -0.4607978878
C       -2.4275442766    2.9710835842    0.9395999344
C       -1.2594131173    3.1865069232    1.6639655651
C       -0.1129349927    3.5148249865    0.9434014984
C       -3.8722030451    2.6779631889   -0.8994152992
C       -4.0963201769    1.1914549104   -0.5302091206
C       -4.0649260321    1.1402021275    0.8759507202
C       -3.8390216767    2.5712142711    1.3711275792
C       -4.2101151856    0.0200446949   -1.2883970520
C       -4.3103338185   -1.1901703201   -0.5914187518
C       -4.2657346022   -1.2342214051    0.8117477632
C       -4.1211842774   -0.0706794221    1.5667206978
C       -4.6427681796    3.3281163072    0.2796019626
C        1.3226816583    3.9905947744   -0.8651288995
C        1.2861283640    3.9080223581    1.4083804835
C        2.2562736684    2.8278536655    0.9551251788
C        2.3012459456    2.8706631382   -0.4452398005
C        3.0782757686    1.9804514373    1.6905582706
C        3.9976794970    1.2110874488    0.9885085809
C        4.0666515255    1.2521106879   -0.4100096023
C        3.2053223879    2.0675916307   -1.1463447550
C        1.6086372687    4.9728052536    0.3119632890
C        5.2264067230    0.3272578528   -0.8114133244
C        4.8243079857   -1.0993667073   -0.4244184050
C        4.7373012981   -1.1181832482    0.9788215175
C        5.1071749029    0.2763374036    1.4616518698
C        4.5470312677   -2.2414077614   -1.1581917094
C        4.1534832392   -3.4025279523   -0.4714082687
C        4.0440829085   -3.4089938092    0.9165349959
C        4.3406242357   -2.2563939700    1.6564933718
C        6.1802773195    0.6237693640    0.3854290670
C       -4.3223977840   -2.7181070665    1.2059214864
C       -3.0302898984   -3.3689838845    0.7147109478
C       -3.0649827138   -3.3205782647   -0.6879060777
C       -4.3875572517   -2.6480112410   -1.0671373303
C       -1.9430636743   -3.8914800287    1.3794630403
C       -0.8764583464   -4.3892529222    0.6309764341
C       -0.9008738961   -4.3433428135   -0.7610524564
C       -2.0012353839   -3.7955575367   -1.4368103539
C       -5.2674158723   -3.2212415458    0.0808498193
H       -1.3092040392    3.4375781837   -2.2503127056
H       -1.2447806615    3.1216688892    2.7485383157
H       -4.1532384606    2.9659638872   -1.9140150100
H       -4.0888741112    2.7578287241    2.4160877415
H       -4.2355951080    0.0438506466   -2.3757720999
H       -4.0670314307   -0.1050827212    2.6518870016
H       -4.5030909589    4.4123681466    0.3267978825
H       -5.7060947657    3.0686253287    0.2814471262
H        1.4409576400    4.3702305844   -1.8819102702
H        1.3709378461    4.2072100092    2.4534803508
H        3.0342641092    1.9547872785    2.7760600064
H        3.2703792760    2.1063627496   -2.2274967566
H        0.9196786044    5.8232382015    0.3284328084
H        2.6501233242    5.3092442507    0.3384693405
H        5.6200413501    0.4603548911   -1.8205044241
H        5.3891737266    0.3602149395    2.5120428494
H        4.6328613424   -2.2520289635   -2.2423082068
H        3.9318293034   -4.3081645754   -1.0293372467
H        3.7343840968   -4.3150074915    1.4311381430
H        4.2572784142   -2.2635901840    2.7402862001
H        6.4944794195    1.6708296947    0.4240629011
H        7.0457525608   -0.0466918873    0.4149672195
H       -4.6008838813   -2.9284682152    2.2396755885
H       -4.7247206008   -2.7981013199   -2.0935219595
H       -1.9037674836   -3.8997626542    2.4633346297
H       -0.0085764174   -4.7987848574    1.1416891227
H       -0.0550157567   -4.7247960743   -1.3267693574
H       -2.0113709617   -3.7536368221   -2.5224201477
H       -6.2587422065   -2.7588864039    0.1234620125
H       -5.3446125683   -4.3130091357    0.0530213865
C        1.1005224404    0.3221373584   -2.5280837209
C        1.7138807611   -0.7451922373   -1.8617302768
C        1.0964615101   -1.3062334163   -0.7539197275
C       -0.1279719970   -0.8043930782   -0.2889138899
C       -0.7519234574    0.2319410289   -0.9751465742
C       -0.1301652335    0.7762974410   -2.0817418086
C        1.7145758539    0.9774435322   -3.6393811813
C       -0.7415873963   -1.3100956149    0.8975109559
H        2.6704760816   -1.1176376343   -2.2013263251
H        1.5682315447   -2.1282450218   -0.2313135219
H       -1.7011921033    0.6186600809   -0.6291058885
H       -0.5958155483    1.5887487310   -2.6068879568
N        2.2246716440    1.5574273471   -4.5085050434
N       -1.2149462113   -1.6445566797    1.8996503962
86   
Iteration 3 Energy -2033.02078808
C       -0.1141460979    3.4991914788   -0.4300620546
C       -1.2561943648    3.2811230332   -1.1971858429
C       -2.4049473287    2.9922828813   -0.4699136273
C       -2.4145006733    2.8977619774    0.9304896630
C       -1.2659292363    3.0858798516    1.6820517948
C       -0.1230958408    3.4216582018    0.9711008212
C       -3.8333042386    2.6774962642   -0.9161009105
C       -4.0976205821    1.2106225725   -0.5577029956
C       -4.0900214050    1.1397324570    0.8450616111
C       -3.8368525196    2.5500684612    1.3417668845
C       -4.2429680619    0.0734849455   -1.3471601345
C       -4.4213058547   -1.1090315111   -0.6408245608
C       -4.4050340414   -1.1619877203    0.7591143786
C       -4.2109501683   -0.0451947566    1.5473822412
C       -4.6065799182    3.3434686493    0.2528613424
C        1.3044817684    3.9308111832   -0.8136761385
C        1.2557445037    3.8382818672    1.4504236301
C        2.2572616109    2.7843955004    1.0061155683
C        2.3080097442    2.8453133187   -0.3951288443
C        3.0993284637    1.9670710590    1.7510569634
C        4.0519586170    1.2620027986    1.0293186123
C        4.1277950458    1.3291772454   -0.3693590314
C        3.2431674001    2.1027231012   -1.1154718849
C        1.5567354829    4.9121367064    0.3660841114
C        5.3435184508    0.4845652425   -0.7710021613
C        5.0420281754   -0.9691446845   -0.4125823073
C        4.9314839673   -1.0209570623    0.9866940164
C        5.2072320703    0.3868111550    1.4928108708
C        4.8717152472   -2.1133706784   -1.1714709141
C        4.5532876055   -3.3139267096   -0.5215234296
C        4.4141721810   -3.3458431801    0.8625606988
C        4.6055178923   -2.1950862490    1.6388303825
C        6.2608438859    0.8198598456    0.4363080088
C       -4.5757088551   -2.6239734983    1.1428182727
C       -3.3147572152   -3.3442509125    0.6816341646
C       -3.3121142980   -3.2737102350   -0.7198616253
C       -4.5889589309   -2.5445840957   -1.1202572566
C       -2.2849574407   -3.9412629984    1.3674865701
C       -1.2278337210   -4.4723206684    0.6321375167
C       -1.2089177962   -4.3935780072   -0.7594067020
C       -2.2589395193   -3.7851597600   -1.4556159773
C       -5.5319081333   -3.0628664843    0.0010395714
H       -1.2600589537    3.3701111726   -2.2828812552
H       -1.2690012313    3.0235114894    2.7675951390
H       -4.0977912470    2.9818485590   -1.9306611568
H       -4.0978580157    2.7433901708    2.3839405439
H       -4.2490167409    0.1063242956   -2.4343124949
H       -4.1803817232   -0.0909935794    2.6329093029
H       -4.4381123523    4.4236124407    0.3099818784
H       -5.6784037031    3.1188723170    0.2407610267
H        1.4242641859    4.3215794967   -1.8256673002
H        1.3250178658    4.1416076119    2.4967726448
H        3.0556150588    1.9322493082    2.8374160386
H        3.3198047757    2.1705264168   -2.1970105240
H        0.8479160508    5.7466935230    0.3808522578
H        2.5886678659    5.2761498425    0.4029446536
H        5.7410135485    0.6599158708   -1.7723750261
H        5.4776131359    0.4722269490    2.5468230093
H        4.9879010066   -2.0956104300   -2.2531777989
H        4.4173592035   -4.2233636063   -1.1013027527
H        4.1648080069   -4.2831396479    1.3525969675
H        4.5055296653   -2.2316981169    2.7207712222
H        6.5084868811    1.8841359041    0.4952142483
H        7.1682865574    0.2067218132    0.4631549541
H       -4.8919501663   -2.8183274859    2.1691497646
H       -4.9143258084   -2.6713949646   -2.1545182748
H       -2.2720101566   -3.9580733314    2.4518877347
H       -0.3943730963   -4.9362264752    1.1539934147
H       -0.3682945548   -4.8065378425   -1.3110630598
H       -2.2412952109   -3.7248892083   -2.5409753377
H       -6.4943468814   -2.5404640373    0.0235488971
H       -5.6810540730   -4.1474420975   -0.0321982427
C        1.0303749030    0.2575016583   -2.5477066264
C        1.6737099938   -0.7946243456   -1.8868179485
C        1.1404400349   -1.3589305705   -0.7442341163
C       -0.0616607762   -0.8204460523   -0.2758434184
C       -0.7277039122    0.1985884698   -0.9744155316
C       -0.2011872408    0.7654484371   -2.1291271670
C        1.6676605425    0.8864535642   -3.6637113905
C       -0.5929507370   -1.2734023129    0.9815482228
H        2.6243478264   -1.1523666700   -2.2553448927
H        1.6452536507   -2.1603154931   -0.2164356892
H       -1.6622178465    0.5792446653   -0.5849543081
H       -0.6927824614    1.5748725219   -2.6558284276
N        2.2026427452    1.4547694532   -4.5255936814
N       -0.9891159067   -1.5616266989    2.0346640708
86   
Iteration 4 Energy -2033.02926064
C       -0.1222652038    3.6665924810   -0.3704836628
C       -1.2604365558    3.4604793619   -1.1363364355
C       -2.4122099251    3.1141090386   -0.4382847586
C       -2.4384806217    3.0027713516    0.9629658932
C       -1.2947477307    3.2217997858    1.7183260793
C       -0.1401159365    3.5703179976    1.0287914614
C       -3.8098073931    2.7401620867   -0.9117326665
C       -4.0077831513    1.2737408710   -0.5521949053
C       -4.0434491714    1.1845499482    0.8449358973
C       -3.8558237083    2.6061978881    1.3491821684
C       -4.0750665470    0.1307164431   -1.3341952417
C       -4.2465327530   -1.0757300319   -0.6716350071
C       -4.2961216088   -1.1642804412    0.7260454745
C       -4.1590498372   -0.0278237326    1.5124853395
C       -4.6334356832    3.3698046165    0.2424277619
C        1.2934600465    4.0809933570   -0.7500619559
C        1.2415871543    3.9652536726    1.5120217351
C        2.2075959527    2.8876419046    1.0505491253
C        2.2525914225    2.9630817130   -0.3523997088
C        3.0171244087    2.0287889444    1.7788421366
C        3.9144200818    1.2826367475    1.0303130529
C        3.9780852371    1.3665802588   -0.3702835920
C        3.1413564644    2.2003470707   -1.1027907279
C        1.5680651006    5.0409381882    0.4403908731
C        5.1309347828    0.4566292247   -0.7961662534
C        4.7360827273   -0.9746193364   -0.4582714427
C        4.6371127994   -1.0440523484    0.9413251273
C        5.0158608010    0.3325207444    1.4648000535
C        4.4884217110   -2.0880532917   -1.2377350692
C        4.1033494853   -3.2717959278   -0.5958989994
C        3.9711937562   -3.3312555854    0.7884322333
C        4.2425978152   -2.2054210621    1.5768675514
C        6.0815610053    0.7123771958    0.4032981558
C       -4.4740803409   -2.6361062071    1.0691948225
C       -3.1858146566   -3.3365074702    0.6625450616
C       -3.0997379872   -3.2193311026   -0.7348772456
C       -4.3597366947   -2.4980502959   -1.1916016289
C       -2.1942730265   -3.9653147988    1.3918012199
C       -1.0853852616   -4.4727529399    0.7015853848
C       -0.9903541079   -4.3300577549   -0.6794855570
C       -1.9993181890   -3.6993801114   -1.4182795301
C       -5.3564248503   -3.0561360391   -0.1385623493
H       -1.2507288411    3.5709647181   -2.2211653100
H       -1.3049577556    3.1458245947    2.8031984046
H       -4.0650706356    3.0299016457   -1.9332604106
H       -4.1454814861    2.7880401096    2.3867482156
H       -4.0346441763    0.1774136524   -2.4191464630
H       -4.1680604904   -0.0813179741    2.5972300699
H       -4.5137131486    4.4570642045    0.3017570759
H       -5.6948660639    3.1017085132    0.2097224695
H        1.4200783429    4.4750731151   -1.7599635434
H        1.3173186239    4.2549276242    2.5627739536
H        2.9832142402    1.9818360730    2.8652652269
H        3.2072200713    2.2850427525   -2.1868416562
H        0.8802917542    5.8935134107    0.4663601744
H        2.6079036575    5.3827159204    0.4814485246
H        5.5275669736    0.6205405158   -1.7998922684
H        5.3049735328    0.3842824929    2.5166366818
H        4.5993372779   -2.0592749160   -2.3201332012
H        3.9105549359   -4.1604870437   -1.1906935268
H        3.6711016500   -4.2614627906    1.2630804983
H        4.1555712403   -2.2524301687    2.6593382563
H        6.4011665437    1.7571793145    0.4761814760
H        6.9485923844    0.0426480295    0.4102557527
H       -4.8466782869   -2.8577052460    2.0712103090
H       -4.6258514306   -2.6034620695   -2.2455329290
H       -2.2469767556   -4.0250332672    2.4750652861
H       -0.2843644880   -4.9616601042    1.2504149382
H       -0.1187178420   -4.7217074668   -1.1972949138
H       -1.9165784268   -3.6029082072   -2.4982951245
H       -6.3263190783   -2.5473601370   -0.1606852501
H       -5.4912953750   -4.1409621446   -0.2073743506
C        1.0373840437    0.1585740755   -2.5871979531
C        1.7167558986   -0.8671443740   -1.9222649198
C        1.1799169806   -1.3585819616   -0.7492116857
C       -0.0120940052   -0.8190652832   -0.2487776902
C       -0.7395689243    0.1650655349   -0.9324598084
C       -0.1969400630    0.6459669014   -2.1172395778
C        1.6507598620    0.7852471481   -3.7193357171
C       -0.4651131167   -1.2271815728    1.0469611676
H        2.6648885698   -1.2358615673   -2.2912696600
H        1.7018024926   -2.1358081627   -0.2000529828
H       -1.6634624208    0.5625189606   -0.5310209222
H       -0.7100330246    1.4368530863   -2.6601558077
N        2.1685433346    1.3592937112   -4.5873049194
N       -0.8036825639   -1.4899866790    2.1280094130
86   
Iteration 5 Energy -2033.03018021
C       -0.1161394923    3.6415256424   -0.3753165589
C       -1.2891963284    3.4551609168   -1.0981090555
C       -2.4740870805    3.1356930030   -0.4374172566
C       -2.4735507557    3.0237954875    0.9624851625
C       -1.3153764211    3.2112505974    1.7093046110
C       -0.1512679586    3.5414017322    1.0220808687
C       -3.8902014687    2.8127951501   -0.9049263293
C       -4.1317313009    1.3458080043   -0.5668044657
C       -4.1370508298    1.2587581333    0.8320037837
C       -3.8997685145    2.6677294599    1.3617229581
C       -4.2562264834    0.2052288966   -1.3519851660
C       -4.4381727483   -1.0171725180   -0.7140477297
C       -4.4558741182   -1.1073347431    0.6869093734
C       -4.2787391649    0.0308859756    1.4746308794
C       -4.6713630500    3.4605065506    0.2714649435
C        1.3067836800    4.0366012679   -0.7595130416
C        1.2358141101    3.9249343575    1.5070094733
C        2.2115165029    2.8547651428    1.0464372274
C        2.2746691571    2.9225596000   -0.3524291919
C        3.0385349722    2.0063021555    1.7660772690
C        3.9891375797    1.2868761246    1.0533769662
C        4.0818251589    1.3614831589   -0.3451823802
C        3.1996437264    2.1648740464   -1.0702586112
C        1.5732297368    4.9988173597    0.4340358037
C        5.3055689340    0.5235009682   -0.7376817932
C        5.0284375294   -0.9359266423   -0.3984686134
C        4.8784397808   -0.9996486007    0.9966905059
C        5.1330625974    0.4048091431    1.5235757022
C        4.9285782956   -2.0795977249   -1.1677592733
C        4.6256674855   -3.2930097021   -0.5346710745
C        4.4292290631   -3.3469718596    0.8428132827
C        4.5604047126   -2.1895017568    1.6226867594
C        6.2012042671    0.8526382845    0.4891166938
C       -4.6541155005   -2.5809398301    1.0249214149
C       -3.3872138681   -3.2966727239    0.5781916429
C       -3.3357044007   -3.1841172835   -0.8220092167
C       -4.5948307138   -2.4354595977   -1.2419543820
C       -2.3823648414   -3.9434488637    1.2771822045
C       -1.3027906122   -4.4728051879    0.5500184341
C       -1.2360509668   -4.3373549832   -0.8316324819
C       -2.2617351479   -3.6851447105   -1.5316963122
C       -5.5721230655   -2.9801600094   -0.1636478189
H       -1.2819510471    3.5763363832   -2.1794745944
H       -1.3249460672    3.1363407021    2.7942639397
H       -4.1505223922    3.1195571400   -1.9202852345
H       -4.1652408946    2.8478842326    2.4059417669
H       -4.2348590127    0.2656809404   -2.4370821527
H       -4.2637930471   -0.0349261016    2.5587843994
H       -4.5166907760    4.5427939165    0.3413321013
H       -5.7411106621    3.2265610126    0.2526064177
H        1.4402003680    4.4322523077   -1.7684526760
H        1.3079749986    4.2167961325    2.5571334934
H        2.9965035587    1.9671072720    2.8514135648
H        3.2790039657    2.2568214744   -2.1518643997
H        0.8877455043    5.8537546299    0.4567821732
H        2.6132296583    5.3401306621    0.4814392127
H        5.7209361399    0.7128166539   -1.7294126621
H        5.3890577862    0.4838232737    2.5822117004
H        5.0959144331   -2.0502381573   -2.2427339206
H        4.5494732476   -4.2017714491   -1.1256599792
H        4.1943071856   -4.2952920091    1.3183794328
H        4.4327788967   -2.2358416443    2.7008176818
H        6.4438169405    1.9178017498    0.5656155793
H        7.1145336917    0.2481433784    0.5247443973
H       -5.0026637528   -2.7997468028    2.0362197054
H       -4.8895131989   -2.5307880212   -2.2891372192
H       -2.4014511648   -4.0062830260    2.3620608431
H       -0.4983073507   -4.9780021544    1.0774129628
H       -0.3873287725   -4.7459492363   -1.3742997066
H       -2.2106841906   -3.5876512731   -2.6131957800
H       -6.5330527084   -2.4545988001   -0.1573948826
H       -5.7286358414   -4.0619125563   -0.2347862343
C        1.0115581218    0.1310749982   -2.6400504108
C        1.6821283248   -0.8736149164   -1.9411394973
C        1.1894250143   -1.3519099586   -0.7382819447
C        0.0099839850   -0.8422086177   -0.1822347484
C       -0.7019291782    0.1232068012   -0.8957464534
C       -0.2013852835    0.5847112205   -2.1029108548
C        1.5989728339    0.7377308322   -3.7967404120
C       -0.4214727857   -1.2380505451    1.1213543668
H        2.6200283771   -1.2490421946   -2.3239238568
H        1.7456553379   -2.1140438884   -0.2029335539
H       -1.6189938731    0.5266522075   -0.4877889176
H       -0.7471476970    1.3575848662   -2.6323919407
N        2.1042150738    1.2925781118   -4.6842976608
N       -0.7514597395   -1.5072339068    2.2021973662
86   
Iteration 6 Energy -2033.03460067
C       -0.1279303547    3.6920452660   -0.3753849279
C       -1.2829280588    3.5038020693   -1.1296871691
C       -2.4474803728    3.1669424361   -0.4441886847
C       -2.4556884297    3.0499301062    0.9564590425
C       -1.3119785447    3.2512181968    1.7179858467
C       -0.1567033676    3.5906788864    1.0247783032
C       -3.8605570325    2.8211560782   -0.9123117069
C       -4.0790036038    1.3438153267   -0.5849631316
C       -4.0861645282    1.2520959720    0.8176765588
C       -3.8757727976    2.6658792660    1.3513705338
C       -4.1851049496    0.2101366243   -1.3868040941
C       -4.3485383596   -1.0115847829   -0.7400251846
C       -4.3664394726   -1.1026621341    0.6623810315
C       -4.2088875624    0.0250763459    1.4652819223
C       -4.6555287232    3.4502082394    0.2637560201
C        1.2980947997    4.0927016468   -0.7509316204
C        1.2298359596    3.9748696702    1.5141389834
C        2.1929704588    2.8920799357    1.0569932283
C        2.2521355879    2.9658629845   -0.3417803033
C        3.0046620677    2.0264927467    1.7761335714
C        3.9334757823    1.2827711273    1.0604602558
C        4.0208502950    1.3637530759   -0.3373713577
C        3.1621498552    2.1924910165   -1.0606093366
C        1.5718040737    5.0522669598    0.4443945881
C        5.2170199449    0.4937624920   -0.7400866793
C        4.8838891778   -0.9572329227   -0.4100130582
C        4.7434714210   -1.0249589044    0.9867327839
C        5.0533941710    0.3650954522    1.5217186563
C        4.7355502990   -2.0905948726   -1.1883686035
C        4.3933500653   -3.2978575348   -0.5617436631
C        4.2081573814   -3.3488671114    0.8171960986
C        4.3870130098   -2.2060966086    1.6088279578
C        6.1321947670    0.7854965566    0.4842735079
C       -4.5482876565   -2.5819109282    0.9979578115