30   
Iteration 0 Energy -1011.84502798
H       -0.5220000000   -2.8130000000   -2.8020000000
C       -0.4610000000   -2.9670000000   -1.7520000000
C       -0.3920000000   -3.1420000000   -0.5590000000
C       -0.3130000000   -3.3390000000    0.7870000000
N       -0.2460000000   -3.5080000000    1.9420000000
H        2.9550000000    0.7240000000   -2.6980000000
C        2.5350000000    1.4220000000   -2.0160000000
C        2.0570000000    2.2150000000   -1.2410000000
C        1.5180000000    3.1100000000   -0.3660000000
N        1.0560000000    3.8780000000    0.3840000000
H       -0.5780000000    1.4180000000    3.7160000000
C       -1.2870000000    1.3900000000    2.9240000000
C       -2.0920000000    1.3580000000    2.0240000000
C       -3.0000000000    1.3220000000    1.0100000000
N       -3.7790000000    1.2910000000    0.1390000000
H       -2.6160000000   -1.7620000000    2.5200000000
C       -2.7220000000   -1.6770000000    1.4660000000
C       -2.8430000000   -1.5800000000    0.2680000000
C       -2.9790000000   -1.4710000000   -1.0830000000
N       -3.0960000000   -1.3780000000   -2.2420000000
H        2.3760000000   -2.1380000000    2.4400000000
C        2.3780000000   -2.1520000000    1.3780000000
C        2.3790000000   -2.1680000000    0.1700000000
C        2.3800000000   -2.1860000000   -1.1920000000
N        2.3820000000   -2.2010000000   -2.3610000000
H       -0.3920000000   -0.0050000000   -0.7010000000
C        0.2610000000    0.2270000000    0.1050000000
C        1.0030000000    0.4910000000    1.0210000000
C        1.8390000000    0.7880000000    2.0550000000
N        2.5560000000    1.0440000000    2.9410000000
30   
Iteration 1 Energy -1011.85932321
H       -0.5323381172   -2.8497309873   -2.7739487227
C       -0.4921792906   -3.0528595142   -1.7299320450
C       -0.4377244492   -3.2570968840   -0.5402298146
C       -0.3661403577   -3.4514303040    0.8035778289
N       -0.3005936130   -3.5975526827    1.9614891713
H        2.9576678199    0.7220844506   -2.7130107316
C        2.5614995158    1.4650974254   -2.0631615630
C        2.0948551037    2.2797474044   -1.3027989889
C        1.5543295920    3.1665227989   -0.4202841245
N        1.0846035169    3.9119845101    0.3488150747
H       -0.6087782475    1.4357545190    3.7424100086
C       -1.3436404282    1.4391638933    2.9736188799
C       -2.1508305982    1.4427100373    2.0754865625
C       -3.0338038751    1.4376028472    1.0404289977
N       -3.7854474974    1.4183486991    0.1447172085
H       -2.6357242974   -1.8174892161    2.5078974318
C       -2.7906928305   -1.7313185716    1.4602909762
C       -2.9379504775   -1.6163660279    0.2674969930
C       -3.0629251020   -1.4684216996   -1.0789720256
N       -3.1417053114   -1.3456039935   -2.2393911095
H        2.4445555434   -2.2035873983    2.4196118999
C        2.5273782051   -2.2155664053    1.3593526272
C        2.5677261388   -2.2024376225    0.1532112504
C        2.5527385613   -2.1606744528   -1.2050596456
N        2.5161735592   -2.1155493265   -2.3735381504
H       -0.4133120697    0.0042911210   -0.6989826647
C        0.2298706485    0.2336047631    0.1146795813
C        0.9675913402    0.4948581233    1.0318941524
C        1.8058111981    0.7888779965    2.0611450003
N        2.5259858165    1.0360365002    2.9501859449
30   
Iteration 2 Energy -1011.86922634
H       -0.5154110024   -2.9381384576   -2.7486830875
C       -0.4498183214   -3.1763606472   -1.7137041191
C       -0.3836840258   -3.4061785441   -0.5285994677
C       -0.3135149525   -3.5970489318    0.8156400485
N       -0.2539406705   -3.7184388164    1.9774448810
H        2.9534335234    0.7186054797   -2.7477750217
C        2.5976415533    1.5196581355   -2.1431487590
C        2.1565274302    2.3701657454   -1.4064077806
C        1.6300613519    3.2652480416   -0.5248537331
N        1.1641490763    3.9994527906    0.2577902874
H       -0.6963554392    1.5004027529    3.8287759115
C       -1.4470870917    1.5364271944    3.0761145461
C       -2.2435843722    1.5763088733    2.1689352782
C       -3.0848237775    1.5941152895    1.1000239821
N       -3.7891613924    1.5827723957    0.1659718532
H       -2.7278564417   -1.9026606792    2.4930612950
C       -2.9375092293   -1.7724987642    1.4592187147
C       -3.1106566457   -1.6154853246    0.2739693828
C       -3.2061007464   -1.4286353157   -1.0696913089
N       -3.2243015685   -1.2775835374   -2.2297586083
H        2.5746947265   -2.3610742555    2.4015492033
C        2.6874208755   -2.3388896887    1.3437586321
C        2.7451981667   -2.2622904880    0.1392685440
C        2.7187969333   -2.1183943625   -1.2120873712
N        2.6547016965   -1.9654826564   -2.3708992439
H       -0.4513168430   -0.0127992537   -0.7125850610
C        0.1917078848    0.2016672342    0.1059980993
C        0.9232930131    0.4587359901    1.0310340093
C        1.7455876149    0.7564102728    2.0716186065
N        2.4489086508    1.0029895603    2.9750202788
30   
Iteration 3 Energy -1011.87408474
H       -0.5095275590   -3.0354166822   -2.7399375529
C       -0.4381919810   -3.2640977884   -1.7033101830
C       -0.3703514187   -3.4946057232   -0.5185573417
C       -0.3002772633   -3.6846179768    0.8270483755
N       -0.2413532846   -3.8041156036    1.9892334758
H        2.9413610249    0.7057728826   -2.7899656048
C        2.6169830636    1.5384842181   -2.2099362083
C        2.2035181006    2.4177605088   -1.4906686938
C        1.7053151247    3.3416478394   -0.6229344089
N        1.2616335624    4.0983479784    0.1510399928
H       -0.7938904242    1.5853362765    3.9367015953
C       -1.5278979048    1.6344401880    3.1683833813
C       -2.3036672879    1.6921422239    2.2437793611
C       -3.1195139991    1.7218494265    1.1547249241
N       -3.7956752039    1.7202008401    0.2001023255
H       -2.8376375835   -2.0050517542    2.4943199819
C       -3.0371313965   -1.8300875693    1.4648979788
C       -3.2031174774   -1.6307632390    0.2845577173
C       -3.2753125632   -1.4093709472   -1.0566050675
N       -3.2672376734   -1.2300965067   -2.2127082809
H        2.7254232687   -2.5473065302    2.3785769249
C        2.8256654572   -2.4495835922    1.3238318203
C        2.8840390543   -2.2901065571    0.1273099081
C        2.8631935352   -2.0415109321   -1.2097698150
N        2.8054230907   -1.7847991911   -2.3501020870
H       -0.4951355953   -0.0323915688   -0.7395797031
C        0.1477207396    0.1755295529    0.0815320574
C        0.8697817462    0.4266717356    1.0169224326
C        1.6711026311    0.7138242189    2.0782055286
N        2.3517581851    0.9529143189    2.9999071517
30   
Iteration 4 Energy -1011.87804012
H       -0.5096439953   -3.1879013717   -2.7384694670
C       -0.4277862552   -3.3816632278   -1.6955862689
C       -0.3523494751   -3.5959688998   -0.5084962942
C       -0.2761690703   -3.7839527590    0.8377150742
N       -0.2132007122   -3.9137353523    1.9984313407
H        2.9213902213    0.6862327972   -2.8540138888
C        2.6328096737    1.5511439362   -2.3006559149
C        2.2604974788    2.4661722127   -1.6034610520
C        1.8139520232    3.4429507353   -0.7663901205
N        1.4174190231    4.2544186633   -0.0228844404
H       -0.9400479682    1.7292852620    4.1056809320
C       -1.6287931210    1.7803445220    3.2968929691
C       -2.3669087242    1.8431170700    2.3423947011
C       -3.1550942631    1.8788422029    1.2326466519
N       -3.8090870917    1.8878970927    0.2627932147
H       -3.0242525206   -2.1507238159    2.5042210337
C       -3.1716052102   -1.9104423171    1.4790627473
C       -3.3014400185   -1.6501367091    0.3063094760
C       -3.3394572158   -1.3775392962   -1.0272316308
N       -3.3096411296   -1.1566885971   -2.1756737218
H        2.9433499162   -2.8402707991    2.3222566741
C        3.0087308503   -2.6063577122    1.2865531948
C        3.0602612339   -2.3128502165    0.1155093462
C        3.0613889162   -1.9130627808   -1.1850698957
N        3.0381336186   -1.5227608611   -2.2874685884
H       -0.5579572513   -0.0530889849   -0.7958189233
C        0.0742729162    0.1430912992    0.0366620744
C        0.7752450531    0.3787912383    0.9921103847
C        1.5429847053    0.6422212171    2.0848484066
N        2.1899983125    0.8636355654    3.0341319399
30   
Iteration 5 Energy -1011.87944420
H       -0.5129309267   -3.2862465066   -2.7430103518
C       -0.4250228028   -3.4498244002   -1.6956454978
C       -0.3410653983   -3.6434863371   -0.5057762962
C       -0.2554197255   -3.8300662198    0.8399720528
N       -0.1843863284   -3.9720285151    1.9987253688
H        2.9178932505    0.6992476287   -2.8943681259
C        2.6362660638    1.5795556398   -2.3604657984
C        2.2869401973    2.5116335930   -1.6742545624
C        1.8781316545    3.5229594915   -0.8605194417
N        1.5191013793    4.3746683122   -0.1435349693
H       -1.0306601801    1.8370291448    4.2181365685
C       -1.6807980164    1.8771272706    3.3776320646
C       -2.3910777410    1.9265983226    2.4015734705
C       -3.1649004105    1.9561727454    1.2816529024
N       -3.8149141163    1.9663956851    0.3092255013
H       -3.1651127721   -2.2370294986    2.5182233882
C       -3.2574495152   -1.9629039351    1.4952004192
C       -3.3425298914   -1.6659827676    0.3272243488
C       -3.3508730817   -1.3546813048   -0.9980550470
N       -3.3080798664   -1.1017632691   -2.1394646097
H        3.0728450734   -3.0319117660    2.2754297238
C        3.1170990479   -2.7063005091    1.2638380869
C        3.1615386580   -2.3317364032    0.1161063211
C        3.1823357015   -1.8598964110   -1.1594910427
N        3.1896969669   -1.4213348262   -2.2430066766
H       -0.6013507900   -0.0552520761   -0.8466190282
C        0.0148532106    0.1268510379    0.0011241794
C        0.6966959102    0.3445753295    0.9746526429
C        1.4416759854    0.5866840624    2.0881501870
N        2.0684983309    0.7919466322    3.0543441629
30   
Iteration 6 Energy -1011.88048602
H       -0.5266499172   -3.3770760410   -2.7513398342
C       -0.4322227504   -3.5110592905   -1.7004940058
C       -0.3337860792   -3.6778184004   -0.5077769962
C       -0.2292893003   -3.8596934848    0.8371273457
N       -0.1407019846   -4.0120299445    1.9933050620
H        2.9267420724    0.7330496761   -2.9241460509
C        2.6354020646    1.6239241244   -2.4137188594
C        2.3033791058    2.5715293884   -1.7403486255
C        1.9318089860    3.6193124514   -0.9560737763
N        1.6123467825    4.5123315331   -0.2714615880
H       -1.1082939205    1.9593596483    4.3270078678
C       -1.7194819151    1.9782671398    3.4572276131
C       -2.4013140193    1.9987476565    2.4601407852
C       -3.1611446011    2.0066114498    1.3304661912
N       -3.8100751832    2.0047207013    0.3572918334
H       -3.3254790821   -2.3213271089    2.5372830684
C       -3.3481609120   -2.0194702869    1.5182525967
C       -3.3673314054   -1.6856600496    0.3575079077
C       -3.3286451998   -1.3297241551   -0.9555236300
N       -3.2592397787   -1.0375923013   -2.0862891958
H        3.1790991777   -3.2129252773    2.2281140680
C        3.2144423719   -2.8071748324    1.2457093744
C        3.2558051019   -2.3609460264    0.1239436362
C        3.2985101202   -1.8384827933   -1.1309692884
N        3.3339318923   -1.3769404039   -2.2040365705
H       -0.6465559040   -0.0434817841   -0.9140851209
C       -0.0518110771    0.1173730096   -0.0466360758
C        0.6051359645    0.3080895774    0.9494848117
C        1.3230955691    0.5225156487    2.0862172627
N        1.9274836629    0.7065703669    3.0708201622
30   
Iteration 7 Energy -1011.88139404
H       -0.5549714429   -3.4552428003   -2.7611211134
C       -0.4499325292   -3.5672964231   -1.7088103792
C       -0.3300080164   -3.7065674202   -0.5146025391
C       -0.1958882017   -3.8781558863    0.8289236610
N       -0.0784144153   -4.0329200372    1.9821881106
H        2.9419314260    0.7595818562   -2.9247530307
C        2.6374773287    1.6633703191   -2.4462984634
C        2.3195790972    2.6352009244   -1.8009055991
C        1.9809663948    3.7273169872   -1.0627734606
N        1.6979484967    4.6647411969   -0.4228120081
H       -1.1689345418    2.0954933266    4.4290497654
C       -1.7474086543    2.0832650842    3.5371338154
C       -2.4023393006    2.0620453918    2.5221650477
C       -3.1455314290    2.0322198620    1.3819525039
N       -3.7890087036    2.0016376176    0.4056251663
H       -3.5072704068   -2.4072121811    2.5562726158
C       -3.4516533388   -2.0802411173    1.5463775373
C       -3.3856347584   -1.7083481860    0.3991577859
C       -3.2731885786   -1.3029726516   -0.8947787632
N       -3.1485361360   -0.9652257716   -2.0080850317
H        3.2604036196   -3.3830912228    2.1761616704
C        3.3039504981   -2.9134580628    1.2227175194
C        3.3492060006   -2.3991078867    0.1304892020
C        3.4089798685   -1.8249314735   -1.1013505079
N        3.4601702058   -1.3341880602   -2.1610790313
H       -0.6954933191   -0.0182127163   -0.9976516681
C       -0.1253892432    0.1148943903   -0.1086750128
C        0.5001098056    0.2700920756    0.9136574167
C        1.1845696889    0.4504517653    2.0766061912
N        1.7613103660    0.6078613193    3.0822186088
30   
Iteration 8 Energy -1011.88249167
H       -0.6178562635   -3.5407587290   -2.7736248508
C       -0.4881059382   -3.6340035637   -1.7222969608
C       -0.3280692168   -3.7390196523   -0.5293442120
C       -0.1386120680   -3.8893983630    0.8100035170
N        0.0334761222   -4.0351425361    1.9575954699
H        2.9672744269    0.7868300399   -2.8778703448
C        2.6496125578    1.7152894548   -2.4587704826
C        2.3470899434    2.7313500971   -1.8769704362
C        2.0432802297    3.8872753586   -1.2247628175
N        1.8007570655    4.8841090496   -0.6626133721
H       -1.2259372982    2.2946370075    4.5509323219
C       -1.7704624058    2.2263210585    3.6403814442
C       -2.3923915062    2.1332543018    2.6087979369
C       -3.1084917477    2.0297230449    1.4558180154
N       -3.7353648589    1.9365455393    0.4726674840
H       -3.7821729795   -2.5203295116    2.5685337822
C       -3.6108090716   -2.1621579436    1.5824991921
C       -3.4075415728   -1.7416800099    0.4688206273
C       -3.1583660077   -1.2707184790   -0.7825447978
N       -2.9153727387   -0.8698106760   -1.8547339427
H        3.3357773703   -3.5959198734    2.1001307503
C        3.4094864798   -3.0622607811    1.1826004213
C        3.4692515395   -2.4653084352    0.1338131117
C        3.5443519303   -1.8207931881   -1.0622786089
N        3.6029807057   -1.2814882338   -2.0981406077
H       -0.7595399647    0.0387049697   -1.1252364048
C       -0.2268871392    0.1264438088   -0.2069005920
C        0.3448011080    0.2226943001    0.8536945449
C        0.9723144500    0.3467255709    2.0550778557
N        1.5025265572    0.4598866261    3.0917220265
30   
Iteration 9 Energy -1011.88345590
H       -0.6632593669   -3.5327397282   -2.7770409779
C       -0.5131858054   -3.6343172216   -1.7291638417
C       -0.3289568185   -3.7371499250   -0.5394854894
C       -0.1069172594   -3.8758346075    0.7961327288
N        0.0969568014   -4.0061802589    1.9404105527
H        2.9824949998    0.7789468286   -2.8108041245
C        2.6666582359    1.7225194406   -2.4243446101
C        2.3612879213    2.7615939648   -1.8861307456
C        2.0499146705    3.9386343991   -1.2761662264
N        1.8001203990    4.9514191275   -0.7465531526
H       -1.2026924078    2.3536758173    4.5584929898
C       -1.7548484573    2.2567885562    3.6550875583
C       -2.3768938862    2.1298775621    2.6272250012
C       -3.0839960444    1.9822033813    1.4735520717
N       -3.6978420819    1.8461184094    0.4871761901
H       -3.8734258607   -2.5435711856    2.5756755985
C       -3.6706705926   -2.1818497282    1.5968634602
C       -3.4223114546   -1.7565634337    0.4941412127
C       -3.1145266426   -1.2780310811   -0.7408820437
N       -2.8096903264   -0.8681819551   -1.7933078596
H        3.3065629237   -3.6220432780    2.0909643823
C        3.4080694510   -3.0985903915    1.1701609574
C        3.4833436830   -2.4964628974    0.1252927706
C        3.5549940469   -1.8385925167   -1.0638155058
N        3.6013525737   -1.2812958687   -2.0908846607
H       -0.7450914777    0.0944242989   -1.1755257273
C       -0.2294348606    0.1620876103   -0.2456715700
C        0.3127904282    0.2293632464    0.8324230049
C        0.9100100330    0.3231903068    2.0511228447
N        1.4161868471    0.4115613769    3.1020553317
30   
Iteration 10 Energy -1011.88517236
H       -0.8060992541   -3.3986969321   -2.7709931895
C       -0.5860022656   -3.5542200024   -1.7421303047
C       -0.3326006698   -3.6870091991   -0.5681918502
C       -0.0223888156   -3.8018702290    0.7518901384
N        0.2658987935   -3.8801536039    1.8828196718
H        3.0204105510    0.7169699644   -2.5502399043
C        2.7241831370    1.6994731671   -2.2481996153
C        2.3886205033    2.7869759294   -1.8387458487
C        2.0074656501    3.9899827899   -1.3270245981
N        1.6818856049    5.0130099099   -0.8620622853
H       -1.0337853359    2.3970863835    4.4484874553
C       -1.6515632630    2.2308806501    3.5991037552
C       -2.3114461395    2.0282732707    2.6077103786
C       -3.0120935972    1.7626257033    1.4714821945
N       -3.5906747574    1.5059954550    0.4876348224
H       -3.9803603395   -2.5286109225    2.6087464327
C       -3.7597220611   -2.1843033648    1.6274028109
C       -3.4650890150   -1.7897471047    0.5244574786
C       -3.0578820254   -1.3496384644   -0.6959048337
N       -2.6357104811   -0.9751437459   -1.7190220231
H        3.0809598166   -3.4982041478    2.1312352039
C        3.2652185455   -3.0864161995    1.1676362988
C        3.3936089087   -2.5558628578    0.0897218134
C        3.4448832980   -1.9235545754   -1.1135367540
N        3.4423662219   -1.3504013044   -2.1327512282
H       -0.5863838812    0.2888858248   -1.2570558337
C       -0.1009294713    0.3199705739   -0.3089068403
C        0.3672423690    0.3196375034    0.8053030367
C        0.8842494832    0.3365266908    2.0619395057
N        1.3227381141    0.3585390310    3.1461943209
30   
Iteration 11 Energy -1011.88569659
H       -0.8152728243   -3.4373908233   -2.7648980082
C       -0.5856564153   -3.5792042174   -1.7363162137
C       -0.3251511787   -3.7094576223   -0.5637631503
C       -0.0116946265   -3.8333298790    0.7544798544
N        0.2786602830   -3.9276520027    1.8836289600
H        3.0183079417    0.7323881140   -2.5745266228
C        2.7247390001    1.7165651051   -2.2733628897
C        2.3988720744    2.8071927783   -1.8642474211
C        2.0344176896    4.0211464354   -1.3674529688
N        1.7237519449    5.0579882380   -0.9234594249
H       -1.0734193879    2.4364934224    4.4951019817
C       -1.6700643274    2.2703203009    3.6309470160
C       -2.3195293157    2.0676035367    2.6326568181
C       -3.0218644278    1.8078271484    1.4963344682
N       -3.6098938368    1.5629992460    0.5153141534
H       -4.0504517516   -2.5629739258    2.5915195795
C       -3.7970680651   -2.2063136913    1.6225016179
C       -3.4814878631   -1.7973687601    0.5307115438
C       -3.0615134974   -1.3442313781   -0.6814176998
N       -2.6435135053   -0.9629104471   -1.7045089696
H        3.1420453157   -3.5826564498    2.0993469696
C        3.3078439339   -3.1198919742    1.1557354919
C        3.4306369414   -2.5569531161    0.0936312902
C        3.4991020334   -1.8975545723   -1.0937318968
N        3.5224578016   -1.3075820519   -2.1026914821
H       -0.6087825310    0.2733821874   -1.2652020913
C       -0.1277289778    0.3039257913   -0.3150010976
C        0.3412906395    0.3032601580    0.7993805623
C        0.8538680844    0.3176224990    2.0593284259
N        1.2840984541    0.3377561686    3.1469614005
30   
Iteration 12 Energy -1011.88629353
H       -0.8854013220   -3.4513370176   -2.7421521832
C       -0.6126397005   -3.5900950398   -1.7239087579
C       -0.3120881077   -3.7325634063   -0.5625107051
C        0.0412620942   -3.8746715760    0.7433978057
N        0.3658384908   -3.9897827644    1.8612789806
H        3.0378268359    0.7496197287   -2.5306310506
C        2.7446933040    1.7435619922   -2.2589934524
C        2.4223749214    2.8498870313   -1.8911318710
C        2.0639455968    4.0879580015   -1.4542758974
N        1.7554720209    5.1494514497   -1.0712461035
H       -1.0871837068    2.5122154911    4.5337551121
C       -1.6668241365    2.3254351979    3.6624026448
C       -2.3119103586    2.1002146013    2.6660871735
C       -3.0196554038    1.8176829738    1.5387304708
N       -3.6187766685    1.5596568156    0.5680004942
H       -4.2071757879   -2.6121211464    2.5613864643
C       -3.8901576192   -2.2426193877    1.6162315016
C       -3.5252176064   -1.8213827963    0.5447779127
C       -3.0593449361   -1.3632281603   -0.6493625550
N       -2.6213661605   -0.9870395517   -1.6664426566
H        3.1685444125   -3.6851801824    2.0529676627
C        3.3271399311   -3.1676428186    1.1371761397
C        3.4566733214   -2.5731739866    0.0932886081
C        3.5529517356   -1.8783192049   -1.0710385365
N        3.6098206888   -1.2600979458   -2.0611810860
H       -0.5944416543    0.3006943297   -1.2906199774
C       -0.1275069121    0.3237824097   -0.3336086192
C        0.3266732919    0.3066492981    0.7870320011
C        0.8121071477    0.2972541984    2.0590019628
N        1.2113658471    0.2961917109    3.1585887149
30   
Iteration 13 Energy -1011.88689342
H       -0.9907115627   -3.4348108926   -2.6953182365
C       -0.6561015767   -3.5900168950   -1.6982418311
C       -0.2969442353   -3.7676062727   -0.5585410642
C        0.1147128042   -3.9502910625    0.7247113040
N        0.4870675294   -4.1026973849    1.8230976465
H        3.0848162250    0.7785652075   -2.4562583257
C        2.7808721045    1.7806881850   -2.2282161279
C        2.4533962753    2.9038748934   -1.9207806176
C        2.0917100216    4.1670334556   -1.5665885073
N        1.7788136265    5.2529097474   -1.2637057750
H       -1.0828200784    2.5953092969    4.5605553596
C       -1.6531157299    2.3826330765    3.6889851176
C       -2.3019559602    2.1297988232    2.7018182306
C       -3.0230771896    1.8188529549    1.5904675495
N       -3.6396659462    1.5411029589    0.6362705129
H       -4.4045342769   -2.6606475373    2.5132219734
C       -4.0188710191   -2.2811302826    1.5981120045
C       -3.5988867185   -1.8522221499    0.5501432930
C       -3.0838675121   -1.4001730203   -0.6260831735
N       -2.6218089126   -1.0400098699   -1.6383357415
H        3.1819417781   -3.7879718473    1.9991153397
C        3.3407192661   -3.2150899909    1.1172597576
C        3.4793242382   -2.5884967748    0.0936062562
C        3.6045411494   -1.8524873089   -1.0418265744
N        3.6948775604   -1.1993039747   -2.0065963433
H       -0.5590074651    0.3346893891   -1.3036442651
C       -0.1057470399    0.3527804996   -0.3406230048
C        0.3382500487    0.3217609379    0.7836650626
C        0.7974488316    0.2889415125    2.0653194148
N        1.1656232859    0.2650146209    3.1754109800
30   
Iteration 14 Energy -1011.88751207
H       -1.1028129189   -3.4030054726   -2.6321721521
C       -0.7081332093   -3.5947588283   -1.6639250769
C       -0.2880277607   -3.8192265482   -0.5536755562
C        0.1869960119   -4.0547018838    0.6984424266
N        0.6115736548   -4.2527907482    1.7702598968
H        3.1473848138    0.8274093127   -2.3663842458
C        2.8264783881    1.8363010468   -2.1966409879
C        2.4903540609    2.9748042879   -1.9638454852
C        2.1235528710    4.2591677774   -1.7038935104
N        1.8088183859    5.3648571182   -1.4864926896
H       -1.0751089429    2.6927673988    4.5842314034
C       -1.6426248972    2.4486951484    3.7190234748
C       -2.2951903860    2.1605868796    2.7440555395
C       -3.0254698445    1.8118268527    1.6498081219
N       -3.6529528989    1.5022640136    0.7125098193
H       -4.6290633019   -2.7048718766    2.4521781937
C       -4.1788820005   -2.3181690087    1.5701311184
C       -3.6950110168   -1.8823444852    0.5530206034
C       -3.1197150608   -1.4338479432   -0.5960327731
N       -2.6130056178   -1.0829053579   -1.5899447291
H        3.2051066666   -3.8936741970    1.9399866492
C        3.3780988537   -3.2738887398    1.0933214468
C        3.5250935609   -2.6076341235    0.0962466659
C        3.6678511827   -1.8241316483   -1.0043976973
N        3.7758909464   -1.1307536225   -1.9387618645
H       -0.5281847273    0.3647370554   -1.3130894699
C       -0.0892143914    0.3747723966   -0.3435505764
C        0.3447283279    0.3317640563    0.7841636837
C        0.7819247840    0.2802024360    2.0727078659
N        1.1265439182    0.2375490280    3.1897201275
30   
Iteration 15 Energy -1011.88928664
H       -1.3649228461   -3.2821252327   -2.3915852415
C       -0.8351594564   -3.6131157968   -1.5316756051
C       -0.2758908806   -3.9965133558   -0.5317032865
C        0.3438955543   -4.4116026755    0.6044577803
N        0.8851431527   -4.7630129780    1.5799830235
H        3.3171647943    1.0093420940   -2.1441312233
C        2.9551902919    2.0194905937   -2.1292278396
C        2.5974722486    3.1747597306   -2.0944276210
C        2.2187999068    4.4816960374   -2.0793107990
N        1.9030337170    5.6082994848   -2.0792411470
H       -1.0503859225    2.9306684061    4.6238286325
C       -1.6242421968    2.6123756829    3.7871165574
C       -2.2928499177    2.2408733455    2.8520665447
C       -3.0507096368    1.8029543603    1.8091919587
N       -3.7068437909    1.4154630555    0.9214289590
H       -5.2119310210   -2.7888907436    2.2564497392
C       -4.6264516894   -2.3925160221    1.4625540740
C       -3.9956836744   -1.9469982162    0.5339120755
C       -3.2807683028   -1.5132808350   -0.5390811568
N       -2.6646446239   -1.1879275868   -1.4782935621
H        3.3088591610   -4.1434092085    1.7710513560
C        3.5211338438   -3.4147383750    1.0258394935
C        3.6764237640   -2.6375741909    0.1138478740
C        3.8417452274   -1.7268474336   -0.8797591282
N        3.9705004445   -0.9260498469   -1.7209233076
H       -0.4663206935    0.3950531009   -1.2938032841
C       -0.0491103414    0.3960686799   -0.3154452496
C        0.3857255995    0.3491171392    0.8112749842
C        0.8031676699    0.2814586366    2.1048968258
N        1.1246588903    0.2179825962    3.2277087867
30   
Iteration 16 Energy -1011.89109215
H       -1.5312623738   -3.1578465668   -2.0831672368
C       -0.9194819484   -3.6507926383   -1.3669568746
C       -0.2649997283   -4.1954126409   -0.5095823523
C        0.4653221408   -4.7884687571    0.4712020245
N        1.0990664840   -5.2874802334    1.3182316392
H        3.4452538880    1.2261709747   -1.9410798859
C        3.0727424144    2.2243397403   -2.0736604924
C        2.7093470013    3.3682210773   -2.2278858606
C        2.3288449608    4.6589926245   -2.4331890246
N        2.0174460478    5.7707714950   -2.6236099357
H       -1.0138341213    3.1356992471    4.6228714232
C       -1.6091269433    2.7482467318    3.8313481487
C       -2.2962528476    2.2987171080    2.9451778043
C       -3.0740694625    1.7739901381    1.9581729857
N       -3.7452791532    1.3086199791    1.1203739963
H       -5.7356150084   -2.8209883795    2.0595756099
C       -5.0596613767   -2.4298046632    1.3382080317
C       -4.3133471153   -1.9859655641    0.4988183841
C       -3.4760881445   -1.5640240935   -0.4861776953
N       -2.7513800871   -1.2543663814   -1.3502151942
H        3.4138319423   -4.3425575095    1.5965305778
C        3.6658593946   -3.5363107439    0.9480169249
C        3.8264052854   -2.6534771337    0.1383194288
C        3.9897120086   -1.6260867951   -0.7349973432
N        4.1069026666   -0.7256244266   -1.4702373474
H       -0.4295225230    0.3936627349   -1.2536054636
C       -0.0211233153    0.3943046751   -0.2715714137
C        0.4237437069    0.3614737572    0.8515319569
C        0.8505067859    0.3036008181    2.1423428095
N        1.1830585253    0.2433959864    3.2622145673
30   
Iteration 17 Energy -1011.89310703
H       -1.5536640279   -3.0285497432   -1.6752147772
C       -0.9305070449   -3.7229960231   -1.1611803795
C       -0.2365237332   -4.4457876101   -0.4856553527
C        0.5630401794   -5.2199877617    0.2949509713
N        1.2627977957   -5.8608302879    0.9792172121
H        3.5616268625    1.4658040483   -1.7660501130
C        3.2052137589    2.4388747133   -2.0441255760
C        2.8427115532    3.5448474649   -2.3762590120
C        2.4582372649    4.7910047109   -2.7696779669
N        2.1452535593    5.8649163829   -3.1138295051
H       -0.9515994075    3.2929786108    4.5610221123
C       -1.5920754599    2.8438803100    3.8404212613
C       -2.3093342012    2.3253188252    3.0181747033
C       -3.1079632449    1.7215768663    2.0949610456
N       -3.7863756986    1.1836905854    1.3081435264
H       -6.2290614887   -2.7925827323    1.8815719005
C       -5.5081236348   -2.4206164017    1.1946041668
C       -4.6837948288   -1.9864579498    0.4265089764
C       -3.7563498494   -1.5638437358   -0.4729986717
N       -2.9444334537   -1.2474001359   -1.2529514503
H        3.5098375062   -4.5000793091    1.3984179776
C        3.7912085584   -3.6310329896    0.8468384074
C        3.9570644901   -2.6397823173    0.1744366952
C        4.0963223744   -1.4964881003   -0.5493869396
N        4.1745126317   -0.4986888184   -1.1528198481
H       -0.4374646741    0.3276055076   -1.1530933764
C       -0.0089372333    0.3491695263   -0.1798366852
C        0.4763242469    0.3683293979    0.9264000883
C        0.9714494627    0.3696745837    2.1936534944
N        1.3776066449    0.3584530021    3.2907572873
30   
Iteration 18 Energy -1011.89434617
H       -1.5154926351   -2.9881274453   -1.6709840687