18   
Iteration 0 Energy -449.79401200
O        0.8559100000   -1.3823600000    0.3174600000
H        1.6752400000   -1.8477400000    0.4858000000
H        1.1176100000   -0.4684300000    0.2057500000
O       -1.0986300000   -0.8583700000    2.1731900000
H       -0.4031000000   -1.1460800000    1.5818400000
H       -1.0851100000    0.0968300000    2.1128200000
O        1.8644800000    1.2201800000    1.3331100000
H        2.0104700000    1.8829200000    0.6580600000
H        2.6420500000    0.6632600000    1.2947900000
O        0.4360100000    0.8591100000   -1.7990100000
H        1.2952700000    0.5943600000   -1.4706600000
H        0.1355600000    0.1112200000   -2.3153700000
O       -0.8009300000   -2.0911300000   -1.5730000000
H       -0.2203200000   -1.8297700000   -0.8582800000
H       -0.3280600000   -1.8458100000   -2.3682600000
O       -1.4967600000    2.2679100000   -0.3295400000
H       -0.8467900000    1.6940800000   -0.7351300000
H       -2.3252600000    1.7984600000   -0.4267000000
18   
Iteration 1 Energy -449.81769940
O        0.8853960340   -1.3064948781    0.3827106231
H        1.7007308184   -1.8558189997    0.4977714726
H        1.2210021279   -0.3778344416    0.4095686288
O       -1.1537123078   -0.8693240743    2.2379948710
H       -0.4428551430   -1.1590220714    1.6109317339
H       -1.0706588007    0.1118962948    2.1178234406
O        1.8437540080    1.1326112179    1.2961659817
H        1.9880828197    1.8638698376    0.6389079032
H        2.7475341150    0.7209829703    1.2780406387
O        0.4195182416    0.9271762109   -1.7914166799
H        1.3306230577    0.6074269495   -1.5672624273
H        0.0929016016    0.1470783955   -2.3071821281
O       -0.8951532851   -2.1572762627   -1.6671785094
H       -0.3062346933   -1.9292234645   -0.8990280702
H       -0.3025190268   -1.9073701738   -2.4231768029
O       -1.4825176553    2.2968811893   -0.3099077344
H       -0.8400756911    1.7148770327   -0.7942133676
H       -2.3081730456    1.7582042675   -0.4236827489
18   
Iteration 2 Energy -449.82580351
O        0.8492244168   -1.2713316755    0.3613029566
H        1.6681384979   -1.8216714533    0.4679465970
H        1.1931811116   -0.3681906337    0.5977508532
O       -1.1661971366   -0.8676982822    2.2635073171
H       -0.4630209324   -1.1916898924    1.6356271289
H       -1.0768424513    0.1171864542    2.1338560476
O        1.8971412515    1.0181284196    1.2027915303
H        1.9260010239    1.8163461451    0.6051194488
H        2.8692300225    0.8145678626    1.2872248319
O        0.4277179558    0.9377381171   -1.8242678845
H        1.3497210389    0.6100026893   -1.6429702428
H        0.0480466038    0.1704517917   -2.3282242100
O       -0.8948891065   -2.1650046588   -1.6647447134
H       -0.3124645314   -1.9173592882   -0.8919443495
H       -0.2706382137   -1.9880484332   -2.4237681866
O       -1.5004440801    2.3051084516   -0.2815982734
H       -0.8151055646    1.7927690679   -0.7930786614
H       -2.3011527746    1.7273321113   -0.4176705284
18   
Iteration 3 Energy -449.82842532
O        0.8346667960   -1.2014792007    0.3352789392
H        1.5879939533   -1.8211322101    0.4898441099
H        1.1913785937   -0.3424814367    0.7011828429
O       -1.1792697264   -0.8846725606    2.2929780988
H       -0.5087524922   -1.2179255288    1.6430804998
H       -1.0801552625    0.0914497069    2.1506264310
O        1.9926618250    0.8951584437    1.1113579356
H        1.8361933022    1.7102628328    0.5753648856
H        2.9600083867    0.9597424470    1.2992903593
O        0.4139746645    0.9683636505   -1.8499608819
H        1.3208072662    0.5949146228   -1.7233713712
H       -0.0151191954    0.2181745677   -2.3267796893
O       -0.8732164401   -2.1461074285   -1.6508257969
H       -0.3071672400   -1.8458670401   -0.8921419680
H       -0.2157633671   -2.1064635106   -2.3937833966
O       -1.4837144710    2.3007598479   -0.2555983269
H       -0.7948174740    1.8499369539   -0.8065295628
H       -2.2520598843    1.6960148822   -0.4131614348
18   
Iteration 4 Energy -449.83065562
O        0.7854668290   -1.2653280248    0.2970949325
H        1.4878829402   -1.9072255119    0.5324074907
H        1.1923807816   -0.4181511392    0.6245281734
O       -1.1712214903   -0.9085920293    2.2937747276
H       -0.5295805183   -1.2227811691    1.6145544277
H       -1.0931422135    0.0655122356    2.1674925974
O        2.0594975295    0.9523538602    1.1120874865
H        1.8173057457    1.7459754290    0.5961653523
H        3.0055925542    1.0786677030    1.3274655565
O        0.3949826063    0.9792669790   -1.8719511549
H        1.2867962467    0.5818307811   -1.7546524070
H       -0.0724964880    0.2441462530   -2.3252137648
O       -0.8393137154   -2.1052158985   -1.6307212530
H       -0.2842802003   -1.7652096583   -0.8886448968
H       -0.1693757341   -2.1819529524   -2.3501978130
O       -1.4569199454    2.2881409924   -0.2400330490
H       -0.7703604973    1.8742787208   -0.8119057866
H       -2.2155620276    1.6829389847   -0.4054002822
18   
Iteration 5 Energy -449.83322251
O        0.8120237562   -1.2493298334    0.3404629468
H        1.4443049154   -1.9511786558    0.6021829842
H        1.3052402599   -0.4293648681    0.5844041036
O       -1.1622244753   -0.9250332053    2.2859231768
H       -0.5406932869   -1.2208992873    1.5799646634
H       -1.1114782654    0.0546046852    2.1845960495
O        2.0213064972    0.9692403459    1.0983544838
H        1.8185005660    1.8007740302    0.6239363019
H        2.9732851217    1.0731775605    1.3127760939
O        0.3713604835    0.9683995919   -1.8928170973
H        1.2653304708    0.5790125254   -1.7551017813
H       -0.1132587442    0.2332294128   -2.3313014612
O       -0.8368782893   -2.0721616609   -1.6652393560
H       -0.3018606483   -1.7391656869   -0.9056348815
H       -0.1377543166   -2.2113322839   -2.3456532057
O       -1.4336465838    2.2781658259   -0.2279711954
H       -0.7442392953    1.8769053080   -0.8070442665
H       -2.2016666719    1.6836136518   -0.3949843019
18   
Iteration 6 Energy -449.83617491
O        0.8170724439   -1.2607173273    0.3739472946
H        1.3945196347   -1.9905472385    0.6906413490
H        1.3370827072   -0.4458420329    0.5794995104
O       -1.1444046504   -0.9597676503    2.2761425061
H       -0.5354657815   -1.1740674814    1.5277193077
H       -1.1497770211    0.0266602769    2.2166520466
O        2.0280787913    0.9592900422    1.0519195172
H        1.7819926790    1.8242309997    0.6490150100
H        2.9710065486    1.1162897165    1.2946815531
O        0.3148715615    0.9672562752   -1.9330522743
H        1.2043842586    0.5658333900   -1.7856195901
H       -0.1809775569    0.2125323405   -2.3293645437
O       -0.8028219370   -1.9876738797   -1.7048591660
H       -0.2777799391   -1.6840236224   -0.9227468838
H       -0.0799521261   -2.2744898175   -2.3145689688
O       -1.3807678119    2.2677732309   -0.1982709989
H       -0.7117493521    1.8723204632   -0.8092620334
H       -2.1576563695    1.6836054852   -0.3756196032
18   
Iteration 7 Energy -449.83895298
O        0.8407893190   -1.3049264724    0.4690422555
H        1.1332936580   -2.0615660299    1.0344433348
H        1.5000952635   -0.5736944550    0.5906373267
O       -1.0738237534   -1.0786572165    2.2347074337
H       -0.5667493800   -0.9970735810    1.3799253861
H       -1.3152773192   -0.1218330833    2.3609324696
O        2.1283683360    0.9755566320    0.8089663526
H        1.5808779473    1.8107729965    0.7294013189
H        2.9395192447    1.3457774695    1.2572600544
O        0.0300660573    0.9053510499   -2.1498102491
H        0.9129103612    0.4967259919   -1.9492577614
H       -0.5131095740    0.0827178196   -2.2821176842
O       -0.4314954268   -1.5946160798   -1.9259269216
H       -0.0626298588   -1.4375505767   -1.0118901463
H       -0.0296482932   -2.4850424507   -2.1172850398
O       -1.1183812459    2.2002448564   -0.0613605122
H       -0.5725849808    1.8606852313   -0.8246158036
H       -1.9545432984    1.6958160603   -0.2561946755
18   
Iteration 8 Energy -449.84458493
O        0.8373261381   -1.2763648516    0.3945938088
H        1.3132623879   -2.0115180394    0.8485528304
H        1.3893700438   -0.4748770512    0.5873474793
O       -1.1388231402   -1.0126262277    2.2806546178
H       -0.5465733724   -1.0875037498    1.4874149745
H       -1.2717469065   -0.0305247475    2.2975639788
O        2.0741799544    0.9315513784    0.9055295720
H        1.6507062245    1.8067916210    0.7044845831
H        2.9581240903    1.2207978817    1.2487690184
O        0.1452993368    0.9710567066   -2.0600716182
H        1.0378970988    0.5843043478   -1.8779332525
H       -0.3271159178    0.1418199751   -2.3250161940
O       -0.6281742728   -1.7575459694   -1.7783606962
H       -0.1424282164   -1.6350426355   -0.9204600554
H       -0.0329080138   -2.4045721138   -2.2361024058
O       -1.2028478663    2.2195198209   -0.1335353638
H       -0.6447767917    1.8200899532   -0.8528438823
H       -2.0431011693    1.7133234452   -0.2837323129
18   
Iteration 9 Energy -449.85006194
O        0.8500073338   -1.3052326536    0.4212465167
H        1.3380829193   -2.0033327101    0.9168304069
H        1.3726287320   -0.4747021548    0.5718969329
O       -1.1552667510   -1.0183376449    2.2932671080
H       -0.5598272438   -1.0675754941    1.5021179983
H       -1.3218372073   -0.0427723110    2.3144418284
O        2.0887872011    0.9331301937    0.8414310306
H        1.5906320409    1.7822993430    0.7292951696
H        2.9426523817    1.2496958736    1.2285274957
O        0.0685600344    0.9312758442   -2.1361967185
H        0.9903498058    0.6405650992   -1.9271615965
H       -0.3450607538    0.0448601619   -2.2980599645
O       -0.5409482200   -1.6496501789   -1.8042064426
H       -0.0784675647   -1.6196334566   -0.9256937649
H       -0.0628464957   -2.3998881077   -2.2382465352
O       -1.1166542497    2.1890587662   -0.1085158491
H       -0.6362135543    1.7836632029   -0.8794381645
H       -1.9969046569    1.7452610307   -0.2146873770
18   
Iteration 10 Energy -449.77001849
O        0.8519886193   -1.3827762391    0.5484062427
H        1.4295802243   -1.9395223211    1.1117561199
H        1.3086414559   -0.4986845785    0.5645944519
O       -1.2228162515   -1.0164826394    2.3403458034
H       -0.5726083175   -1.0509306717    1.5987475068
H       -1.4867006693   -0.0671029013    2.3127116367
O        2.0571906560    0.9939856981    0.5929152935
H        1.3577925123    1.6533067655    0.7781856769
H        2.8183896629    1.2886127215    1.1366194321
O       -0.2147140055    0.6499592102   -2.3379829992
H        0.7359789100    0.8934654959   -2.2649724444
H       -0.1846835020   -0.2692814552   -1.9458112119
O       -0.1903520356   -1.3079211649   -1.8498450769
H        0.1104227516   -1.5490372899   -0.9320266251
H       -0.2041959031   -2.1696270402   -2.3234460493
O       -0.7536974923    2.0003604693   -0.1032165774
H       -0.7003194898    1.6244026378   -1.0245307225
H       -1.7122092579    1.8659928252    0.0843916691
18   
Iteration 11 Energy -449.84363152
O        0.8417569046   -1.3464373655    0.4904922405
H        1.4082053538   -1.9650661348    0.9992818452
H        1.3175647088   -0.4771201144    0.5708119147
O       -1.1930454974   -1.0077010393    2.3177710550
H       -0.5573431457   -1.0795484327    1.5652414302
H       -1.3924638536   -0.0416346348    2.2951591248
O        2.0620194104    0.9493304901    0.7228641532
H        1.4769319474    1.7356908360    0.7618297348
H        2.8825722426    1.2477173624    1.1726881619
O       -0.0673524773    0.7780794324   -2.2406293622
H        0.9037202353    0.8077165627   -2.0774753668
H       -0.2463625627   -0.1912852497   -2.0991736214
O       -0.4008215432   -1.4512740034   -1.8268236834
H        0.0199740064   -1.5743050798   -0.9346516985
H       -0.1348406042   -2.2719863972   -2.3025308986
O       -0.9394038701    2.1020376627   -0.1023931544
H       -0.6689691283    1.6832946435   -0.9627728546
H       -1.8844631820    1.8211921391   -0.0628446341
18   
Iteration 12 Energy -449.85565422
O        0.8233461357   -1.3402591267    0.4805309009
H        1.3777032269   -1.9770073844    0.9791215681
H        1.3161049564   -0.4812431520    0.5738845805
O       -1.1864235070   -1.0084397480    2.3149258273
H       -0.5522159148   -1.0969480751    1.5623852311
H       -1.3768166855   -0.0405473021    2.2840884746
O        2.0688123929    0.9519254883    0.7346137449
H        1.4805377249    1.7351783073    0.7444925949
H        2.8835297786    1.2591122691    1.1868086001
O       -0.0085020815    0.9196321361   -2.2491635606
H        0.9551208423    0.8322141142   -2.0718094553
H       -0.3132336762   -0.0270109324   -2.1785598325
O       -0.4321788630   -1.5891025677   -1.7772031695
H        0.0078617009   -1.6453438696   -0.8899764444
H       -0.1160642720   -2.3790580720   -2.2665847066
O       -0.9539482760    2.1049694995   -0.1035547638
H       -0.6503792739    1.6894260554   -0.9542693317
H       -1.8955775006    1.8111979548   -0.0828899160
18   
Iteration 13 Energy -449.85698935
O        0.8171132116   -1.3325885293    0.4918087808
H        1.4016109256   -1.9697169203    0.9571729413
H        1.3100571339   -0.4726274463    0.5774697027
O       -1.2009428636   -0.9978672186    2.3265650380
H       -0.5430260935   -1.1184593195    1.5977232684
H       -1.3778868926   -0.0291952148    2.2534192752
O        2.0089846641    0.9350245503    0.7253323755
H        1.4438046307    1.7386140372    0.7418238482
H        2.8378604107    1.2295013889    1.1648880525
O       -0.0333180474    0.9003164393   -2.2637628407
H        0.9356173646    0.8841654040   -2.0841091757
H       -0.2462957035   -0.0716463740   -2.2353544427
O       -0.4438842108   -1.5732234199   -1.7298855400
H        0.0289664161   -1.6833981465   -0.8667178806
H       -0.1132001399   -2.3342274202   -2.2569087967
O       -0.9185127484    2.0936709801   -0.0875879301
H       -0.6126885444    1.7035328635   -0.9508114151
H       -1.8665854715    1.8168188969   -0.0742279787
18   
Iteration 14 Energy -449.86048152
O        0.8114900704   -1.3566926095    0.5362178423
H        1.4333831411   -1.9758300555    0.9751877919
H        1.2925817401   -0.4875405928    0.5958075056
O       -1.2295685505   -0.9876599438    2.3505800803
H       -0.5483610952   -1.1567414340    1.6529913881
H       -1.4001184310   -0.0244899393    2.2171526956
O        1.9562275160    0.9389149127    0.6615789964
H        1.3421463532    1.7041263815    0.7190251908
H        2.7555353743    1.2457826661    1.1453959322
O       -0.0711798852    0.9053885917   -2.2994823465
H        0.9071655767    0.9629121013   -2.1901623047
H       -0.2175574825   -0.0749377192   -2.1911937528
O       -0.4115741604   -1.5499962981   -1.7286463571
H        0.0582069661   -1.6413134893   -0.8606250539
H       -0.1033979772   -2.3377049356   -2.2282534572
O       -0.7977083482    2.0384129474   -0.0777666591
H       -0.5872243781    1.6771879523   -0.9811458835
H       -1.7623681425    1.8388780654   -0.0098283383
18   
Iteration 15 Energy -449.86603358
O        0.8025568829   -1.3778559982    0.5909137241
H        1.4652268058   -1.9930497036    0.9747830874
H        1.2687834749   -0.4977365783    0.6268563266
O       -1.2599765404   -0.9775642175    2.3765893772
H       -0.5560107570   -1.2003952468    1.7168816292
H       -1.4174281355   -0.0254779806    2.1647599233
O        1.8701905278    0.9432712439    0.5755671744
H        1.1760608676    1.6375726247    0.6589213856
H        2.6125734647    1.2811134022    1.1274718164
O       -0.1001762121    0.9094583033   -2.3400581196
H        0.8809493679    1.0144836841   -2.3419188519
H       -0.2112975523   -0.0667131540   -2.1413234313
O       -0.3652453885   -1.5089589672   -1.7107899346
H        0.0852497596   -1.5729986741   -0.8254441957
H       -0.0656564514   -2.3122794376   -2.1939464350
O       -0.6214021643    1.9641329119   -0.0601784035
H       -0.5432389936    1.6322200068   -0.9964362419
H       -1.5934712888    1.8694770974    0.0841841278
18   
Iteration 16 Energy -449.86953171
O        0.7957746095   -1.3911039881    0.6582759378
H        1.4957041145   -2.0185866206    0.9508963027
H        1.2432035779   -0.4963023863    0.6689974515
O       -1.2855883123   -0.9674920543    2.3997022087
H       -0.5643044397   -1.2503865316    1.7814503454
H       -1.4212276699   -0.0341518485    2.0981492936
O        1.7490038731    0.9433234837    0.4838274710
H        0.9386139214    1.5137712511    0.5253182808
H        2.3823173422    1.3419363901    1.1277521993
O       -0.1197683355    0.9196143018   -2.3614536099
H        0.8490503698    1.0228837273   -2.5192651164
H       -0.2222635733   -0.0445075410   -2.0745280191
O       -0.3260187522   -1.4597097634   -1.6881391385
H        0.0904130831   -1.4583664765   -0.7742064943
H        0.0111753904   -2.2631704788   -2.1529272676
O       -0.3890385651    1.8797547881   -0.0407532767
H       -0.4517898314    1.5796686774   -0.9918403234
H       -1.3475559920    1.9015256905    0.1955805307
18   
Iteration 17 Energy -449.85453830
O        0.8005147578   -1.3147623764    0.6181929211
H        1.4442022648   -2.0348684982    0.8356025581
H        1.2701915349   -0.4218498997    0.6679499761
O       -1.2192543187   -0.9892034660    2.3614473285
H       -0.5442739887   -1.2371802957    1.6781928497
H       -1.3369893532   -0.0349521080    2.1038354334
O        1.8100782782    0.8441457237    0.5934818258
H        0.9537702759    1.3340200872    0.3860888402
H        2.3262932891    1.4017948166    1.2243256186
O        0.0052730849    0.9152971924   -2.2220228489
H        0.9560352678    0.7746152782   -2.4371584109
H       -0.3868168437   -0.0044470200   -2.0076624086
O       -0.4049697803   -1.4808163758   -1.6828239784
H       -0.0617014717   -1.3755972809   -0.7269894167
H        0.1382972961   -2.1446198528   -2.1885238945
O       -0.4803653458    2.0115418653   -0.0679803692
H       -0.3942160530    1.5324496249   -0.9473528777
H       -1.4483565423    1.9431238279    0.0982614532
18   
Iteration 18 Energy -449.86983305
O        0.7951269813   -1.3469336617    0.6376814529
H        1.4613199001   -2.0251332522    0.9042234300
H        1.2628715245   -0.4555900220    0.6615318104
O       -1.2538171126   -0.9816908819    2.3828646216
H       -0.5531672123   -1.2413161162    1.7308246941
H       -1.3878417856   -0.0386929890    2.1027378533
O        1.8204349490    0.8756236409    0.5432631648
H        0.9705992498    1.3990939339    0.4541635730
H        2.3768649096    1.3610655592    1.1961520361
O       -0.0768055866    0.9300879427   -2.2952847380
H        0.8915549452    0.9225624635   -2.4798291131
H       -0.3073162809   -0.0294774691   -2.0496144152
O       -0.3531280619   -1.4655027905   -1.6730832938
H        0.0376379656   -1.4295359263   -0.7398659803
H        0.0670662882   -2.2154674378   -2.1664905179
O       -0.4623974220    1.9583922500   -0.0687218600
H       -0.4377132346    1.5706643361   -0.9936089171
H       -1.4235819240    1.9305474282    0.1399073563
18   
Iteration 19 Energy -449.87636040
O        0.7806129092   -1.3552317778    0.6397498989
H        1.4427692246   -2.0316673818    0.9013115696
H        1.2889233218   -0.4847571212    0.6761437072
O       -1.2567662506   -0.9789274418    2.3844053923
H       -0.5450131667   -1.2448099140    1.7470863166
H       -1.3992672067   -0.0419311096    2.0986800641
O        1.8153242769    0.8814938063    0.5338509056
H        0.9884335528    1.4417923771    0.4740888556
H        2.3728666275    1.3354098651    1.2005373519
O       -0.1121196015    0.9176500657   -2.3076547030
H        0.8556704545    0.9653281448   -2.4876201658
H       -0.2557898792   -0.0575685844   -2.0868096698
O       -0.3517703306   -1.4576989793   -1.6395563397
H        0.0782215874   -1.4856892697   -0.7326854911
H        0.0542947636   -2.1997671285   -2.1442457317
O       -0.4640140908    1.9659576282   -0.0889736781
H       -0.4510383069    1.6298543830   -1.0330236189
H       -1.4136247384    1.9192564185    0.1515653406
18   
Iteration 20 Energy -449.88082277
O        0.7863551425   -1.3654492219    0.6389229307
H        1.4547761303   -2.0373951749    0.8873319971
H        1.2912122109   -0.4883796611    0.6621974813
O       -1.2539088107   -0.9780737319    2.3857321065
H       -0.5354042198   -1.2473855093    1.7577808641
H       -1.4076506787   -0.0452321585    2.0964020948
O        1.7351765860    0.8827676860    0.5203889165
H        0.9090624769    1.4431668084    0.4238277245
H        2.2705487234    1.3306149627    1.2131661847
O       -0.1399872678    0.9041990163   -2.3218171182
H        0.8233579639    0.9729183512   -2.5155283000
H       -0.2426168509   -0.0751324751   -2.1030082062
O       -0.3585240755   -1.4509650665   -1.6112606644
H        0.0755445911   -1.4918845794   -0.7085080766
H        0.0826897175   -2.1614976292   -2.1256511057
O       -0.3683136249    1.9747458926   -0.0766425622
H       -0.3795846274    1.6343196665   -1.0221766612
H       -1.3150137834    1.9173560101    0.1857033436
18   
Iteration 21 Energy -449.88328375
O        0.7815645758   -1.3822272979    0.6433017366
H        1.4766076716   -2.0317890633    0.8797036515
H        1.2440846972   -0.4728351626    0.6434348850
O       -1.2499688628   -0.9862821582    2.3923780213
H       -0.5156349866   -1.2376050649    1.7758946989
H       -1.4302800229   -0.0608494369    2.0960395451
O        1.6964246105    0.8559489738    0.5259752871
H        0.8397588405    1.3775594593    0.3999485324
H        2.1723927567    1.3073213158    1.2572025540
O       -0.1924516260    0.9069854414   -2.3180163892
H        0.7577712742    1.0167664974   -2.5540735698
H       -0.2466742222   -0.0776306334   -2.0931431698
O       -0.3290295193   -1.4339411734   -1.5611595221
H        0.1160905952   -1.5274867028   -0.6661305847
H        0.1069670001   -2.1262638674   -2.1018302193
O       -0.2676485216    2.0046533020   -0.1608004291
H       -0.3663685465    1.6671966928   -1.1079538897
H       -1.1658755057    1.9191692158    0.2360970534
18   
Iteration 22 Energy -449.88620771
O        0.7776307168   -1.3779772940    0.6491165846
H        1.4560337515   -2.0583574090    0.8436281142
H        1.2692102529   -0.4709468843    0.6906969667
O       -1.2229851339   -1.0119594974    2.3936942825
H       -0.4870960495   -1.2200256924    1.7638155016
H       -1.4336099287   -0.0899450116    2.1069753385
O        1.6584554228    0.8066537957    0.5525640075
H        0.8468361278    1.3740985673    0.2889710358
H        2.0372934470    1.2422023043    1.3415583921
O       -0.2313838745    0.9176151278   -2.3142606336
H        0.7063495465    0.9963775401   -2.6002203460
H       -0.3141565190   -0.0659864030   -2.0718197103
O       -0.3176525942   -1.4342468843   -1.5379172779
H        0.1320840599   -1.5207018118   -0.6367567363
H        0.1557651807   -2.0975135244   -2.0842072148
O       -0.2272638883    2.1036916435   -0.2076718582
H       -0.2977208394    1.6912852863   -1.1375723878
H       -1.0800431778    1.9344234141    0.2462801723
18   
Iteration 23 Energy -449.88692943
O        0.7768439361   -1.4094469686    0.6681599788
H        1.4999216002   -2.0390119402    0.8697472548
H        1.2030036444   -0.4636709073    0.6504232185
O       -1.2158477646   -1.0232681303    2.4017441725
H       -0.4815182188   -1.2571653157    1.7769608978
H       -1.4269917623   -0.1022223055    2.1086040587
O        1.6650366034    0.8142624201    0.5819890836
H        0.9084244321    1.4370127326    0.2583756838
H        1.9915354896    1.2308626175    1.4016101069
O       -0.2264079404    0.9075230644   -2.3083645327
H        0.6951242361    0.9846250173   -2.6388447617
H       -0.3117711999   -0.0832338710   -2.0961952661
O       -0.3348359391   -1.4286134090   -1.5478832076
H        0.0899704877   -1.4948854673   -0.6298800346
H        0.1685147549   -2.0681459358   -2.0971483792
O       -0.2145459280    2.1129256446   -0.2210259276
H       -0.3044469845    1.6667973941   -1.1387528855
H       -1.0542720604    1.9343455457    0.2473532837
18   
Iteration 24 Energy -449.88829552
O        0.7552419413   -1.3715538488    0.6619357612
H        1.4451121102   -2.0335160412    0.8832489832
H        1.2351141896   -0.4510388208    0.6763636653
O       -1.2200361710   -1.0509466802    2.4291636669
H       -0.4977198643   -1.2930528986    1.7904526883
H       -1.4443352927   -0.1354264838    2.1257656744
O        1.6993158012    0.8524754500    0.5864502026
H        0.9106807443    1.4404636524    0.2608890995
H        1.9521422610    1.2325724300    1.4531642398
O       -0.2677577500    0.9143824454   -2.3432686045
H        0.6281671789    0.9675293005   -2.7432044299
H       -0.3351125011   -0.0643535412   -2.0744351059
O       -0.2859640755   -1.4087972057   -1.5710392425
H        0.1054177683   -1.4727180851   -0.6372924746
H        0.1724973485   -2.1119931591   -2.0809677988
O       -0.1494160289    2.1068276576   -0.2309981838
H       -0.2937079635    1.6735357613   -1.1517366948
H       -0.9819081157    1.9243090814    0.2523805081
18   
Iteration 25 Energy -449.88751553
O        0.7464849475   -1.3204520978    0.6539434020
H        1.4647585384   -1.9676910269    0.8273254559
H        1.2018782678   -0.3862535413    0.7041139735
O       -1.2286079059   -1.0712705766    2.4639470321
H       -0.4930833518   -1.3070361187    1.8396883708
H       -1.4577112754   -0.1700424490    2.1270768984
O        1.6573037110    0.7993241401    0.6475676369
H        0.9167763184    1.4508782910    0.3297066868
H        1.9370974470    1.1419332226    1.5263848812
O       -0.3084713343    0.8879476573   -2.3546171419
H        0.5395525789    1.0100013488   -2.8376967230
H       -0.2816176634   -0.0846988827   -2.0542363566
O       -0.2857925200   -1.4149911571   -1.5621996529
H        0.1261430216   -1.4971618439   -0.6396268550
H        0.1706321253   -2.0942571555   -2.1035028126
O       -0.0959284270    2.1309404302   -0.2912004424
H       -0.2619712467    1.6781688147   -1.2007910863
H       -0.9197150708    1.9333585826    0.2109868371
18   
Iteration 26 Energy -449.88928356
O        0.7316339677   -1.3542104689    0.6582171371
H        1.4406623086   -2.0067752075    0.8414812375
H        1.1942490947   -0.4230921860    0.7082315786
O       -1.2231093953   -1.0853908780    2.4706243789
H       -0.4990946185   -1.3010501845    1.8291145115
H       -1.4686507248   -0.1861316654    2.1427567702
O        1.7106339214    0.8450557333    0.6490501512
H        0.9585271945    1.4621690168    0.2964349324
H        1.9189334864    1.1787110210    1.5487094066
O       -0.3291943489    0.8865136719   -2.3371275714
H        0.5111514448    1.0331763112   -2.8273966727
H       -0.2978464625   -0.0982860054   -2.0705118486
O       -0.2840031535   -1.4172304686   -1.5539238940
H        0.1487385541   -1.4738062753   -0.6384011417
H        0.1636325750   -2.1042806169   -2.0917324752
O       -0.1008619790    2.1398572802   -0.2950568858
H       -0.2056306768    1.6927955007   -1.2164730630
H       -0.9420432153    1.9306756052    0.1728746953
18   
Iteration 27 Energy -449.88986484
O        0.7445131378   -1.3495738632    0.6660211063
H        1.4366726526   -2.0158032756    0.8587670477
H        1.2366155491   -0.4323041435    0.6825994681
O       -1.2071997778   -1.0951493014    2.4649052376
H       -0.4926973529   -1.2991754237    1.8073334971
H       -1.4770244002   -0.1933250414    2.1586749087
O        1.6886664706    0.8483008855    0.6661493393
H        0.9547825556    1.4624788490    0.2640430857
H        1.8731877505    1.2141686792    1.5552176430
O       -0.2957274164    0.8978293661   -2.3332169259
H        0.5414167472    0.9733424227   -2.8404187141
H       -0.3443760334   -0.0941921070   -2.0842789457
O       -0.2926487180   -1.4015672978   -1.5675473193
H        0.1207726103   -1.4515266558   -0.6396249544
H        0.1909816093   -2.0764604533   -2.0914361322
O       -0.0846461138    2.1230521618   -0.2878404096
H       -0.2435322822    1.6509977313   -1.1880695872
H       -0.9220261119    1.9576002390    0.1955914321
18   
Iteration 28 Energy -449.89079220
O        0.7441158435   -1.3409904002    0.6515378790
H        1.4511388840   -1.9943414246    0.8392028309
H        1.2050744435   -0.4062274630    0.7057155693
O       -1.2076236542   -1.1110065560    2.4829547871
H       -0.4905534605   -1.3091534438    1.8249768360
H       -1.5003954550   -0.2176113892    2.1726633876
O        1.6970990576    0.8360145555    0.6852099968
H        0.9685513533    1.4593471918    0.2835451730
H        1.8550313836    1.1879181657    1.5859039674
O       -0.3290504582    0.8877227687   -2.3649050532
H        0.4811486405    0.9788532935   -2.9112277560
H       -0.3263371267   -0.0978440284   -2.0850654375
O       -0.2862698216   -1.4089811171   -1.5620008580
H        0.1185129605   -1.4528465143   -0.6287180412
H        0.1992788298   -2.0823461882   -2.0852149190
O       -0.0520140814    2.1394037207   -0.2953874179
H       -0.2123102497    1.6772805296   -1.2043611378
H       -0.8876666737    1.9735012216    0.1920374676
18   
Iteration 29 Energy -449.89084096
O        0.7316922354   -1.3186474590    0.6520541100
H        1.4331966959   -1.9869254519    0.8090206662
H        1.1982554634   -0.3871568833    0.7473356201
O       -1.1934403251   -1.1428434956    2.5048726913
H       -0.4857671032   -1.3117188325    1.8300975875
H       -1.5205664715   -0.2627129822    2.1949190026
O        1.6847771387    0.8403550318    0.7232604588
H        0.9860808645    1.4849587108    0.3033277769
H        1.8074895897    1.1703454752    1.6407412802
O       -0.3537885134    0.8797661672   -2.3382408251
H        0.4132978017    0.9836700845   -2.9444817528