22   
Iteration 15 Energy -789.07041152
Cl       2.4011199900   -0.6947875414    0.2729110990
O        1.1562277259    1.1076592568   -1.9009448784
N       -1.0401609278   -0.4467592823   -0.0935031626
C       -0.7423267718   -1.0752303730    1.2458283902
C       -0.4374683975   -1.3056669986   -1.1857781511
C       -2.5303325742   -0.4347310448   -0.3133996552
C       -0.5758458289    1.0447935785   -0.0615328767
C        0.0068454056    1.6661197868   -1.3320844832
H       -1.1746934642   -2.0785969569    1.2516790073
H       -1.2015393090   -0.4597038055    2.0223207470
H        0.3523510375   -1.1095961080    1.3414424888
H       -0.9642536185   -2.2626176701   -1.1582671960
H       -0.5881593302   -0.8132336016   -2.1453026766
H        0.6262228271   -1.4392519630   -0.9580431220
H       -3.0093733301    0.1012045391    0.5080787092
H       -2.8941182572   -1.4628617306   -0.3466659209
H       -2.7388830861    0.0651311991   -1.2615169016
H       -1.4399049529    1.6207940579    0.2753657560
H        0.2101360977    1.0572102844    0.6975504976
H        0.2035873773    2.7093866505   -1.0242648475
H       -0.7857731718    1.7281001173   -2.1030972348
H        1.4801129879    0.3265619021   -1.3839319140
