124  
Iteration 0 Energy -2503.57658823
C      101.9798781882   14.9679918061   80.2661434643
C      102.0828437366   13.4475005527   79.9062638777
C      102.5296942233   12.7617300072   81.1738397549
C      104.0681794560   12.6277748277   81.0378852444
C      104.6979687326   11.9070159890   82.2424821940
C      105.4677111817   12.9156784970   83.0512115984
C      106.8652435763   13.1645952111   82.4404159667
C      107.6349860255   14.2112450088   83.3101249676
C      107.7159589325   15.5837857654   82.5853674668
N      106.3974001138   16.3845178456   82.7872999015
C      106.0725088203   17.2762194880   81.6886674969
C      104.5520175669   17.2722208259   81.4667417518
C      104.0611817974   17.8670218093   80.1441842710
C      102.6646490683   17.3212044363   79.8492829431
C      102.0288617986   18.1319331717   78.7376548867
C      100.4991064649   17.9684634576   78.7936908175
C      100.7089014788   12.9102791336   79.4661620929
C      104.3887700085   11.8342575635   79.7582111452
C      105.5956683681   12.4028500861   84.4907299448
C      109.0607524332   13.6957717728   83.5775034545
C      106.4253907483   17.0612914016   84.0918634030
C      106.5389593290   18.7032767038   82.0291750253
C      104.9838730708   17.5081418883   78.9695772870
O      101.3210986116   15.3218733996   81.2258223619
O      104.7769423085   14.1552637397   83.0812015639
O      103.9464354108   18.0052944142   82.5341712068
O      103.9892058801   19.3015418282   80.2731411229
O      102.7406236477   15.9526623417   79.4094301151
C      105.1348225641    9.5598013519   82.0315527697
C      106.0065308961    8.5461405163   81.3217902517
C      105.4007335920    7.1955924010   81.4517467690
C      105.1848058400    6.8557061248   82.8702721396
C      104.5110312806    7.9653348502   83.6859992025
C      104.6137240603    7.6109359098   85.1806126445
C      107.5470154599    6.0709686929   81.4577447621
C      105.6406533164    4.8713700709   80.7099949544
O      105.5756750577   10.8723621775   81.8066280281
O      106.1092179876    8.8913627472   79.9383853101
N      106.2844379102    6.1909285551   80.7789718752
O      105.1138295882    9.2878923309   83.4730704471
C      100.7272972937   11.6041173369   82.2714724941
C       99.7116371271   10.5594668703   81.8856016040
C      100.0515234033    9.1999217653   82.3794363701
C      100.3294304174    9.2249134033   83.8349493648
C      101.4310618186   10.2005869492   84.1428463444
C      101.6809594045   10.2006229071   85.6619134743
C       98.8399287951    8.2372438711   82.0675407283
C      101.0961738700    8.0702997296   80.5070628542
O      101.8709146467   11.4941541299   81.4357521207
O      101.2561203529    8.7340776338   81.7376511073
O      100.8342615042    7.9343452191   84.2428128963
O      101.1211655079   11.5771263679   83.7139898370
H      102.0608521648   17.3829603432   80.7300495043
H      105.8962976394   17.0958970227   79.3459677792
H      104.4997611816   16.7893383653   78.3426072671
H      105.1980294155   18.3893025376   78.4022791313
H      104.8769061813   19.6647302177   80.3057901088
H      102.2818502203   19.1640520314   78.8595636668
H      102.3900629530   17.7855472602   77.7923058744
H      100.2428471276   17.2731647701   79.5650695291
H      100.0467778312   18.9150566236   79.0022439769
H      100.1448124794   17.6035893721   77.8526929893
H      104.2115693487   16.2596876330   81.5215667477
H      104.6305166416   18.3863283027   83.0889951662
H      106.5643869610   16.9419798724   80.7995814394
H      107.4792954985   18.8934202730   81.5561554046
H      105.8146846666   19.4082090680   81.6789882255
H      106.6469900826   18.7997275320   83.0889678454
H      107.3053809492   17.6653812670   84.1613394068
H      105.5589794139   17.6806979621   84.1908641880
H      106.4321801866   16.3302714161   84.8726949518
H      108.5345344623   16.1454746879   82.9835808372
H      107.8741643879   15.4221191381   81.5399158082
H      107.1257276800   14.3357988239   84.2424749593
H      109.7203928418   14.5265625855   83.7145996930
H      109.0615319524   13.0905586932   84.4594619269
H      109.3909623971   13.1120405555   82.7442247042
H      107.4136628788   12.2464948515   82.4189164203
H      106.7574734755   13.5389783349   81.4442447392
H      106.4957328023   12.7830621995   84.9259965274
H      104.7551060048   12.7341499953   85.0632939386
H      105.6254194035   11.3336283308   84.4869969039
H      105.4116749911   14.8748434330   83.0986107489
H      103.9236921206   11.4839454857   82.8471650111
H      104.4953962920   13.6050114606   80.9564691757
H      105.3172314712   11.3177920395   79.8821341013
H      103.6088071890   11.1260990588   79.5729983662
H      104.4630193351   12.5075416769   78.9303767532
H      102.3243613164   13.4157070207   81.9949893736
H      102.8046780055   13.2988778010   79.1310214588
H      100.7846743257   11.8633641846   79.2603422789
H       99.9967138223   13.0692666874   80.2482400547
H      100.3906940790   13.4249422906   78.5841189489
H      100.2857280999   12.5598222742   82.0823192435
H       99.6399731754   10.5286559694   80.8188077164
H       98.7606700346   10.8416881908   82.2857852351
H       99.1261300740    7.2267193562   82.2701814561
H       98.0064199018    8.5020778594   82.6833817119
H       98.5662749879    8.3306358428   81.0377224089
H      101.9233510418    7.4112167945   80.3473072774
H      100.1879507956    7.5054625505   80.5220309660
H      101.0556509187    8.7897091198   79.7165299614
H      101.7937989891    7.9500536431   84.2378484973
H       99.4447192261    9.4720929686   84.3829663418
H      102.3228826911    9.8791226890   83.6474167420
H      102.6006121246   10.7048620020   85.8719516969
H      100.8770601240   10.7048687197   86.1554885373
H      101.7388361193    9.1921629913   86.0137559301
H      104.1374324344    9.4693990000   81.6558207172
H      106.9813614441    8.5436225688   81.7620552818
H      107.0346534629    8.9528788443   79.6918725716
H      103.4775957215    8.0116524026   83.4139700517
H      105.5089217529    8.0329278240   85.5864181946
H      103.7660940119    8.0060451288   85.6997910707
H      104.6375078824    6.5475965563   85.2940938444
H      104.5737191157    5.9792160927   82.9199960523
H      106.1326019435    6.6357034063   83.3145868747
H      104.4528992513    7.1996045686   80.9560369704
H      108.2784596033    6.6711817555   80.9588780797
H      107.4414662359    6.4043669200   82.4686053947
H      107.8599629196    5.0481562194   81.4504808026
H      106.2696180888    4.1429524747   81.1768411307
H      104.6993571780    4.9069618521   81.2167779881
H      105.4844876284    4.6039224371   79.6861696398
124  
Iteration 1 Energy -2503.63646913
C      101.9593220934   15.0164724680   80.3467871285
C      102.0605311085   13.5152206863   79.9509535463
C      102.5421086065   12.7933679440   81.2065765880
C      104.0765865451   12.6530094517   81.0623656150
C      104.6858589112   11.9121667007   82.2772188647
C      105.4490806420   12.9181040210   83.1155365000
C      106.8604240116   13.1675719261   82.5243205817
C      107.6513096378   14.2090797083   83.3835657015
C      107.7476197813   15.5760953604   82.6538695532
N      106.4530612990   16.3885683423   82.8556591732
C      106.1429293628   17.2760330394   81.7166241058
C      104.6069404970   17.2954245854   81.4903986617
C      104.1057979109   17.8542928760   80.1343350918
C      102.6841103641   17.3284276300   79.8741036445
C      102.0383969636   18.1107780425   78.7387444739
C      100.4987836740   17.9855970897   78.8138474772
C      100.6782801069   12.9993269520   79.5048430608
C      104.4051016229   11.8835948544   79.7602878615
C      105.5500226392   12.3933140224   84.5601452633
C      109.0742076020   13.6735126676   83.6500912327
C      106.5158489146   17.0342388243   84.1790137445
C      106.6444913891   18.7214063716   81.9784172542
C      105.0080533230   17.4390186160   78.9504739331
O      101.3350707728   15.4253722270   81.2982805003
O      104.7475205224   14.1573148768   83.1370302774
O      103.9982707144   18.0825046514   82.5196454600
O      104.0512733210   19.2914635805   80.2103160176
O      102.7166550518   15.9458913448   79.4757030944
C      105.1194559751    9.5655747248   82.0627094977
C      106.0184045802    8.5620899443   81.3669270348
C      105.4101908563    7.1979271852   81.4676004723
C      105.1466116399    6.8549206823   82.8985121742
C      104.4450263090    7.9667946621   83.6901789467
C      104.4977299467    7.6277113603   85.1910132392
C      107.5908040274    6.0770802406   81.4834398894
C      105.6574124296    4.8863421793   80.6934988355
O      105.5720583652   10.8733111469   81.8599102569
O      106.1582531438    8.9256383534   79.9916004584
N      106.3155186247    6.2049666317   80.7957118111
O      105.0515996917    9.2819069187   83.4934170979
C      100.7821148041   11.5950484482   82.3130528072
C       99.7799034132   10.5286948771   81.9327642469
C      100.1621570846    9.1594767348   82.4092714875
C      100.4692072847    9.1856255703   83.8713094715
C      101.5568232874   10.2002947789   84.1577350698
C      101.8445066135   10.2317144551   85.6687689127
C       98.9681973016    8.1761337478   82.1191967020
C      101.2675971852    8.0673979185   80.5024385907
O      101.9082290572   11.5178101280   81.4543376263
O      101.3732630855    8.7287098236   81.7459614504
O      100.9979487886    7.9036517695   84.2686782709
O      101.2019728059   11.5582063886   83.7328307510
H      102.0930617793   17.4354679564   80.7671062956
H      105.9289505436   17.0210245858   79.3114444502
H      104.5032638414   16.7038581070   78.3487366366
H      105.2254033059   18.3038346779   78.3471754558
H      104.9474097463   19.6401730463   80.2158887518
H      102.3180608469   19.1462212166   78.8192365053
H      102.3823770510   17.7181026486   77.7967492450
H      100.2256543773   17.3223767662   79.6167639329
H      100.0636059073   18.9543843426   78.9918689606
H      100.1182799180   17.5923444114   77.8861803010
H      104.2492391109   16.2840158878   81.5888719075
H      104.6777013678   18.4852281887   83.0634467702
H      106.6317141298   16.8933761188   80.8405577632
H      107.5922741949   18.8683434099   81.4882338853
H      105.9343128829   19.4295095732   81.5926552197
H      106.7669639724   18.8932407059   83.0282618336
H      107.4189531337   17.6155123995   84.2684915297
H      105.6654025305   17.6752697055   84.3144439212
H      106.5086862871   16.2750617732   84.9423182726
H      108.5817775802   16.1327542474   83.0503315619
H      107.8992537599   15.4122868732   81.6009116608
H      107.1456893728   14.3484444650   84.3222455961
H      109.7562329374   14.4967843531   83.7830001163
H      109.0719741290   13.0679352256   84.5408525165
H      109.3992407621   13.0756950905   82.8154826905
H      107.4025111313   12.2385526588   82.5067889923
H      106.7584805262   13.5452648213   81.5206320405
H      106.4434731119   12.7676715039   85.0288321233
H      104.6909928906   12.7238409628   85.1188331736
H      105.5800154396   11.3170486978   84.5534420061
H      105.3724964416   14.8951583865   83.1670840192
H      103.8930391891   11.4848731556   82.8665785276
H      104.5088177722   13.6357591663   80.9995617120
H      105.3345050716   11.3575677426   79.8713117220
H      103.6214875933   11.1750503602   79.5496783679
H      104.4876268499   12.5754209589   78.9391807927
H      102.3458715622   13.4335813360   82.0489449227
H      102.7733661606   13.3875283794   79.1581818218
H      100.7484873566   11.9528888718   79.2649890206
H       99.9653253860   13.1373031143   80.2983958469
H      100.3508926087   13.5443656313   78.6352071311
H      100.3187510268   12.5527224696   82.1532464959
H       99.6860977353   10.5120707594   80.8603266284
H       98.8243090948   10.7867102975   82.3586454164
H       99.2796947721    7.1641289962   82.3133077245
H       98.1383805462    8.4237902858   82.7592216265
H       98.6630948116    8.2658977937   81.0909510141
H      102.1375054008    7.4481752365   80.3625677496
H      100.3874844571    7.4509259398   80.4799669665
H      101.2146046766    8.7934292803   79.7063667179
H      101.9590420795    7.9390492054   84.2442216762
H       99.5833343417    9.4121471465   84.4403032952
H      102.4520669946    9.8986813631   83.6400253828
H      102.7592079657   10.7701339727   85.8514828442
H      101.0329272652   10.7229488906   86.1788579153
H      101.9418328423    9.2259547302   86.0382620965
H      104.1246369303    9.4775260877   81.6557482071
H      106.9864793939    8.5599539155   81.8402924866
H      107.0927644772    8.9941988309   79.7749188783
H      103.4133757792    8.0127280072   83.3804211441
H      105.3854252670    8.0566593848   85.6240153146
H      103.6303245130    8.0290299369   85.6872667137
H      104.5178866359    6.5587538666   85.3189952084
H      104.5302124220    5.9721779028   82.9347280812
H      106.0823262455    6.6368823519   83.3817565823
H      104.4700236721    7.2001778754   80.9407358891
H      108.3298435086    6.6898361187   80.9926146360
H      107.5030180683    6.3919081884   82.5087220569
H      107.9141967063    5.0513528331   81.4604802422
H      106.2706658417    4.1323522154   81.1560665587
H      104.7007277230    4.9131410166   81.1881583706
H      105.5107830490    4.6354526598   79.6556963706
124  
Iteration 2 Energy -2503.66293617
C      101.9442151230   15.0183774283   80.3485762713
C      102.0320593608   13.5268684324   79.9526211327
C      102.5120755326   12.7922790161   81.2155813029
C      104.0455278412   12.6347187638   81.0795113453
C      104.6460401980   11.8877252858   82.3030050163
C      105.4099885956   12.8908173851   83.1595207416
C      106.8268283358   13.1389470427   82.5773254679
C      107.6296055474   14.1757094213   83.4299146930
C      107.7317417334   15.5361744209   82.6946056470
N      106.4533447939   16.3540662498   82.8862148504
C      106.1602686709   17.2330147077   81.7260965047
C      104.6208327540   17.2660966747   81.4835239480
C      104.1303985826   17.8055188755   80.1032521141
C      102.6961337308   17.2958546059   79.8487398498
C      102.0549350051   18.0593720331   78.6922331215
C      100.5093004290   17.9587335568   78.7622247009
C      100.6439021497   13.0353947233   79.4957607169
C      104.3820831094   11.8663785606   79.7741706440
C      105.5002149713   12.3573910274   84.6054554806
C      109.0512227482   13.6316504456   83.6991395113
C      106.5166167938   17.0031471917   84.2075255867
C      106.6852316469   18.6805444027   81.9582817069
C      105.0351108096   17.3551840879   78.9272806659
O      101.3256895640   15.4417536173   81.2909962479
O      104.7022500463   14.1297414892   83.1796508797
O      104.0040245765   18.0787396941   82.4883553548
O      104.0856148355   19.2419700265   80.1450734874
O      102.7058186040   15.9054439745   79.4795402659
C      105.1365321172    9.5276305556   82.0587378632
C      106.0901070678    8.5902031400   81.3389354889
C      105.5501175425    7.1871352914   81.3976127531
C      105.2950184793    6.7985798432   82.8317110986
C      104.5357907630    7.8593301029   83.6404736972
C      104.5982155578    7.5006770956   85.1358925348
C      107.7977633052    6.1792769401   81.3734614010
C      105.9002397758    4.9169788012   80.5517441773
O      105.5419286514   10.8513021870   81.8880144748
O      106.2155941778    9.0028073731   79.9770107104
N      106.5032013440    6.2620991611   80.6964150500
O      105.0756480248    9.1999170336   83.4737537455
C      100.7347548209   11.6583250931   82.3091916141
C       99.7030806440   10.6094379684   81.9462787540
C      100.0370143618    9.2337307198   82.4673298260
C      100.3271660148    9.3024148367   83.9409698426
C      101.4439241042   10.3039520104   84.2035030373
C      101.7175931190   10.4047388459   85.7121582375
C       98.8204150327    8.2830784680   82.1950572141
C      101.1534735539    8.0501507471   80.6095999748
O      101.8625477353   11.5303751857   81.4588748354
O      101.2437185435    8.7458630898   81.8371536882
O      100.7972936639    8.0200809026   84.3950040303
O      101.1325639641   11.6441530980   83.7211650973
H      102.1044500310   17.4322271560   80.7425333648
H      105.9571240209   16.9318518974   79.2907134211
H      104.5256352337   16.6104334251   78.3336357876
H      105.2630253938   18.2097213450   78.3048242567
H      104.9872147487   19.5800027138   80.1443631694
H      102.3509768919   19.0961045395   78.7486332132
H      102.3978315700   17.6370016677   77.7568797501
H      100.2162695604   17.3170258850   79.5820511379
H      100.0823690101   18.9408965589   78.9154154846
H      100.1207296019   17.5475438230   77.8397451230
H      104.2502069488   16.2556312535   81.6007178223
H      104.6787981172   18.4902914147   83.0326522266
H      106.6532044689   16.8242857695   80.8603459335
H      107.6430777061   18.8035501408   81.4700038726
H      105.9903509625   19.3977533544   81.5521046381
H      106.8072604041   18.8828754137   83.0073126111
H      107.4289168619   17.5802462539   84.3090393619
H      105.6675995669   17.6540434897   84.3404406876
H      106.4964226182   16.2418354741   84.9747808468
H      108.5747328427   16.0933648294   83.0887393808
H      107.8811141120   15.3662047473   81.6375377690
H      107.1250994423   14.3237915701   84.3726898932
H      109.7461268223   14.4514528508   83.8299955015
H      109.0478697780   13.0263794644   84.5963731701
H      109.3768566444   13.0243899829   82.8650764330
H      107.3633102975   12.2018344265   82.5602000674
H      106.7280772017   13.5193440788   81.5686350697
H      106.3915859578   12.7271455358   85.0926750760
H      104.6317143480   12.6876358289   85.1590633491
H      105.5299944599   11.2762739478   84.5964261046
H      105.3236101004   14.8778026528   83.2156082699
H      103.8447343809   11.4587767142   82.8877196064
H      104.4819906560   13.6202872305   81.0231067488
H      105.3107475839   11.3324349888   79.8866243311
H      103.5953221504   11.1570201731   79.5511838928
H      104.4753255785   12.5608385685   78.9496837469
H      102.3193830394   13.4354305636   82.0627049370
H      102.7461352344   13.3937339336   79.1575241193
H      100.7002356350   11.9851467670   79.2488747069
H       99.9226957555   13.1788761573   80.2869486399
H      100.3260899362   13.5917689174   78.6233025244
H      100.3034100286   12.6319959486   82.1271201762
H       99.6182864691   10.5712696114   80.8686487330
H       98.7469570728   10.9078106942   82.3583484133
H       99.0970030847    7.2639642795   82.4276172765
H       97.9881780667    8.5793334617   82.8193740941
H       98.5251345220    8.3469108519   81.1568682137
H      102.0179185814    7.4064615138   80.5169569041
H      100.2589532380    7.4466966063   80.5734140000
H      101.1421731580    8.7541175654   79.7841560240
H      101.7600480615    8.0218731770   84.3831804410
H       99.4365757765    9.5779580545   84.4902919946
H      102.3398029072    9.9550436529   83.7076675484
H      102.6477452973   10.9312479939   85.8803012377
H      100.9101774781   10.9439930491   86.1902959719
H      101.7854934077    9.4140622736   86.1367882416
H      104.1425909359    9.4034645708   81.6421147367
H      107.0591207812    8.6242789726   81.8218432995
H      107.1479151720    9.1257305038   79.7697271903
H      103.5004817623    7.8614013893   83.3213724774
H      105.4664607553    7.9679068776   85.5807275340
H      103.7094309711    7.8513715388   85.6418316841
H      104.6705927003    6.4274639513   85.2504983967
H      104.7193319143    5.8819827602   82.8500648110
H      106.2406607538    6.6165235665   83.3213824057
H      104.6089537185    7.1548906146   80.8624824093
H      108.5051709438    6.8457238698   80.8932409961
H      107.7172691461    6.4575498555   82.4156351848
H      108.1774994275    5.1697034264   81.3159298343
H      106.5456515234    4.1670444702   80.9879011516
H      104.9392873374    4.8794750097   81.0489226034
H      105.7592713175    4.6918593917   79.5014715093
124  
Iteration 3 Energy -2503.68986167
C      101.8947930328   15.0869663693   80.4011002571
C      101.9709351972   13.6360707736   79.9536819254
C      102.5223503073   12.8489191485   81.1849352153
C      104.0413944177   12.6784774198   81.0224975408
C      104.5976642689   11.9149052151   82.2671428250
C      105.3588347373   12.9074092144   83.1702188234
C      106.7901757844   13.1412708812   82.6231974481
C      107.6114042173   14.1665321860   83.4654243221
C      107.7180341033   15.5150257778   82.7214914853
N      106.4680319979   16.3314240296   82.9052092658
C      106.1795335844   17.2077124761   81.7304837115
C      104.6316448688   17.2619792811   81.4884463637
C      104.1210768183   17.7889921498   80.0861973183
C      102.6549614514   17.3166321795   79.8806156989
C      101.9728335328   18.0601546549   78.7227334524
C      100.4210167061   17.9960743591   78.8370172786
C      100.5686312424   13.1757210429   79.5062192972
C      104.3806542647   11.9420695869   79.6923924303
C      105.3950113232   12.3607373486   84.6196109804
C      109.0271177145   13.6027493936   83.7472844491
C      106.5355307132   16.9883862610   84.2181134111
C      106.7461988058   18.6519235664   81.9267535510
C      104.9963877228   17.2985271486   78.8917382677
O      101.3070557376   15.4789635328   81.3682217317
O      104.6509642584   14.1519514140   83.1672791949
O      104.0207556838   18.0964169816   82.4783790013
O      104.0867008998   19.2199288735   80.0903865653
O      102.6149531589   15.9198333819   79.5446597182
C      105.0192245083    9.5629976184   82.0498550512
C      105.9902161674    8.5891209604   81.3936908953
C      105.3969253942    7.1878233640   81.4366036198
C      105.0299617372    6.8443930246   82.8872284546
C      104.2597271092    7.9576413289   83.6136980393
C      104.2069014678    7.6680283316   85.1223850889
C      107.6265927655    6.1088709929   81.5227101344
C      105.6834572285    4.9064721563   80.6206327397
O      105.4876197481   10.8562905502   81.8977273273
O      106.2088130113    8.9858502385   80.0411378815
N      106.3461700989    6.2260542608   80.7950327535
O      104.8563276194    9.2543743105   83.4438796478
C      100.8460021471   11.6080769396   82.3254616418
C       99.8573065024   10.5048685184   81.9755602937
C      100.3133029156    9.1150868311   82.4211908621
C      100.6960288178    9.1667021198   83.8951988719
C      101.7581919121   10.2576173461   84.1114658035
C      102.1267104074   10.3921238188   85.5912922219
C       99.1588392458    8.1038589148   82.1938004435
C      101.4176904977    8.0842535737   80.4614097174
O      101.9246599543   11.5717626236   81.4092813729
O      101.5100911062    8.7349265156   81.7140576817
O      101.2520306204    7.9093772140   84.2925739348
O      101.3222495539   11.5582218128   83.6755469505
H      102.0958179339   17.4914574494   80.7988140447
H      105.9347717442   16.8596634086   79.2208747634
H      104.4643281204   16.5447204464   78.3130155436
H      105.2216440984   18.1463444099   78.2420508905
H      104.9973235601   19.5397546906   80.0554245399
H      102.2970418197   19.0987023512   78.7384948767
H      102.2819002636   17.5992430999   77.7815654580
H      100.1224155793   17.3810466831   79.6883910849
H      100.0071337250   18.9972847960   78.9747522664
H       99.9826051944   17.5651274727   77.9337049428
H      104.2432032475   16.2493829730   81.6297468398
H      104.7004569723   18.5175998495   83.0146696368
H      106.6676744278   16.7695439366   80.8678685069
H      107.7141012925   18.7455514313   81.4291797971
H      106.0713877103   19.3939115442   81.5097175722
H      106.8871747918   18.8902491550   82.9788147317
H      107.4585945430   17.5721823694   84.3369457673
H      105.6784393852   17.6468172621   84.3516778855
H      106.5065535717   16.2246085749   84.9952267009
H      108.5766293788   16.0791291719   83.1092941252
H      107.8630226669   15.3360916761   81.6555021491
H      107.1065085858   14.3342978510   84.4154125603
H      109.7507470068   14.4119952312   83.8793297309
H      109.0171803968   12.9965434485   84.6567192535
H      109.3587008814   12.9759308822   82.9163742089
H      107.3132609742   12.1867095300   82.6100171792
H      106.7042361283   13.5240536454   81.6024254929
H      106.2741794001   12.7129573578   85.1624756272
H      104.5000407970   12.7007065737   85.1441757949
H      105.4142453054   11.2690335538   84.6098716565
H      105.2746336890   14.9119184419   83.2182608240
H      103.7620526602   11.4944435470   82.8265973339
H      104.4898802349   13.6687770394   80.9886021320
H      105.3094293518   11.3896420012   79.7836713785
H      103.5864352166   11.2353207648   79.4363651714
H      104.4861369385   12.6590803472   78.8745042478
H      102.3572276552   13.4688999856   82.0674090066
H      102.6614201957   13.5394623928   79.1235539336
H      100.6128383180   12.1291937856   79.2052586598
H       99.8514064369   13.2832883253   80.3190367704
H      100.2273276039   13.7774344858   78.6598826027
H      100.3530726130   12.5751369825   82.2308640946
H       99.7040893925   10.5096853459   80.8944758107
H       98.9028436918   10.7269488935   82.4625287577
H       99.5152851309    7.0892522950   82.3787012527
H       98.3426812053    8.3269328235   82.8838790138
H       98.7828170074    8.1730909675   81.1711541635
H      102.3382510921    7.5145475157   80.3202342080
H      100.5702340675    7.3983956600   80.4165459597
H      101.3242793260    8.8188715464   79.6512903402
H      102.2129616645    7.9737698410   84.2169559400
H       99.8156213998    9.3703768893   84.5091369228
H      102.6517395631    9.9766688696   83.5471123679
H      103.0292247310   10.9976248620   85.6982964044
H      101.3072141709   10.8748093553   86.1296660334
H      102.3037374635    9.4069304529   86.0217770097
H      104.0332236673    9.4699378761   81.5736154414
H      106.9354686677    8.6019571889   81.9456362118
H      107.1585453514    9.0788318946   79.8958840183
H      103.2369106829    7.9897824033   83.2187170719
H      105.0718275194    8.1252322872   85.6070275282
H      103.2990736410    8.0775042158   85.5688358825
H      104.2260906232    6.5903462574   85.2973159301
H      104.4122471038    5.9422775200   82.9013799660
H      105.9404117206    6.6415780112   83.4542065602
H      104.4821936632    7.1768492349   80.8362312235
H      108.3817031674    6.7521690417   81.0569796500
H      107.5481910354    6.3958916871   82.5759568132
H      107.9853576713    5.0807309948   81.4834092897
H      106.2664833284    4.1089619881   81.0858012876
H      104.6871566076    4.9013032287   81.0707774450
H      105.5778091385    4.6811704750   79.5543671207
124  
Iteration 4 Energy -2503.70628140
C      101.9043147783   15.0718951438   80.3978179440
C      101.9660602235   13.6180394036   79.9677185111
C      102.4943504569   12.8271773117   81.2129621975
C      104.0162594699   12.6415792377   81.0602258995
C      104.5861859614   11.8797844471   82.3031241731
C      105.3516981564   12.8712424920   83.2098555007
C      106.7781177609   13.1145794710   82.6541263040
C      107.6070205547   14.1391321950   83.4894320896
C      107.7058742915   15.4882730814   82.7480769273
N      106.4636482002   16.3049545512   82.9296369195
C      106.1877742088   17.1727090702   81.7411938984
C      104.6434671950   17.2326804614   81.4837453000
C      104.1560594201   17.7374942858   80.0628191831
C      102.6865427161   17.2789168619   79.8507871508
C      102.0184405493   18.0027986217   78.6712909738
C      100.4649639405   17.9536328818   78.7708890508
C      100.5614513752   13.1809943754   79.5057663516
C      104.3531353592   11.9031348261   79.7309851394
C      105.4028951961   12.3144042285   84.6547312206
C      109.0260432154   13.5789900490   83.7609895722
C      106.5258699526   16.9618398369   84.2421260217
C      106.7651092074   18.6173176256   81.9091081366
C      105.0405690216   17.2160573754   78.8874863281
O      101.3061240206   15.4830885049   81.3558943289
O      104.6310710566   14.1084821873   83.2178541076
O      104.0198095663   18.0859331707   82.4486183964
O      104.1302113344   19.1670309898   80.0368079994
O      102.6359571532   15.8746971876   79.5446192615
C      105.0868795649    9.5203489675   82.0534091835
C      106.1041364263    8.6236237294   81.3533010702
C      105.6033107284    7.1832185592   81.3731765106
C      105.2900738922    6.7876037421   82.8272021576
C      104.4683606871    7.8349183794   83.5930102424
C      104.4733364852    7.5126096514   85.0961228006
C      107.8993927518    6.2479107536   81.3739087427
C      106.0064806363    4.9481006146   80.4906077443
O      105.4883640004   10.8352822654   81.9199396508
O      106.2668654663    9.0662666003   80.0077662754
N      106.5922555685    6.3000040536   80.6866496213
O      104.9767595241    9.1672414628   83.4386177154
C      100.7538997289   11.6840998728   82.3217215420
C       99.7091051529   10.6306767688   81.9752366257
C      100.0602360484    9.2257880819   82.4717630177
C      100.4026872018    9.3038759837   83.9586260958
C      101.5257596873   10.3377589538   84.1740158580
C      101.8575936036   10.5154023004   85.6565910633
C       98.8518704347    8.2871141163   82.2423635453
C      101.1619910351    8.0696093440   80.5793942140
O      101.8510988599   11.5707971578   81.4282594120
O      101.2501377803    8.7487583692   81.8166461625
O      100.8512213138    8.0279773980   84.4165491987
O      101.1822586715   11.6411086195   83.6794544836
H      102.1204988345   17.4781965853   80.7609835800
H      105.9743037083   16.7739714547   79.2297740015
H      104.5094301560   16.4549296211   78.3152772933