18   
Iteration 0 Energy -0.01459772
O        0.8560000000   -1.3820000000    0.3170000000
H        1.6750000000   -1.8480000000    0.4860000000
H        1.1180000000   -0.4680000000    0.2060000000
O       -1.0990000000   -0.8580000000    2.1730000000
H       -0.4030000000   -1.1460000000    1.5820000000
H       -1.0850000000    0.0970000000    2.1130000000
O        1.8640000000    1.2200000000    1.3330000000
H        2.0100000000    1.8830000000    0.6580000000
H        2.6420000000    0.6630000000    1.2950000000
O        0.4360000000    0.8590000000   -1.7990000000
H        1.2950000000    0.5940000000   -1.4710000000
H        0.1360000000    0.1110000000   -2.3150000000
O       -0.8010000000   -2.0910000000   -1.5730000000
H       -0.2200000000   -1.8300000000   -0.8580000000
H       -0.3280000000   -1.8460000000   -2.3680000000
O       -1.4970000000    2.2680000000   -0.3300000000
H       -0.8470000000    1.6940000000   -0.7350000000
H       -2.3250000000    1.7980000000   -0.4270000000
18   
Iteration 1 Energy -0.02519053
O        0.9337213356   -1.3446233535    0.3570130484
H        1.7433790520   -1.8404839497    0.5013918583
H        1.1783777308   -0.4149120402    0.3951816739
O       -1.1313555968   -0.8406750703    2.2068898675
H       -0.4633824361   -1.1608733215    1.5844500171
H       -1.0630187523    0.1113171366    2.1285708449
O        1.8863969870    1.1648872305    1.2819635735
H        1.9686987716    1.8968436804    0.6654178637
H        2.7361915004    0.7270738407    1.2923275245
O        0.4523473387    0.8695010137   -1.7721649879
H        1.3344256262    0.5734251045   -1.5591592655
H        0.0750495243    0.1615650297   -2.2980355883
O       -0.8816419348   -2.1409202359   -1.6889035490
H       -0.3872814429   -1.9250915546   -0.8738597900
H       -0.3010033224   -1.9174031128   -2.4084807488
O       -1.5048485635    2.2755930388   -0.3165351894
H       -0.8413582018    1.7588267753   -0.7946951201
H       -2.3076976160    1.7639497883   -0.4143720327
18   
Iteration 2 Energy -0.03594392
O        0.9495821239   -1.3068010720    0.3485792877
H        1.7718447937   -1.7936605848    0.4844123416
H        1.1742001086   -0.4304077682    0.7176817400
O       -1.1527854374   -0.8125770545    2.2325379318
H       -0.5234949953   -1.1799558838    1.5840200461
H       -1.0368878395    0.1363673599    2.1537733134
O        1.9593106006    1.0424780006    1.1678996645
H        1.8849559150    1.8625654548    0.6635415767
H        2.9004562082    0.9228021846    1.2844567163
O        0.4626191678    0.8920356497   -1.7254686388
H        1.3468583570    0.5309890816   -1.7205936448
H       -0.0364735484    0.2554618188   -2.2468731452
O       -0.9410099995   -2.1838187113   -1.7716486875
H       -0.5197739285   -1.9872268326   -0.9025550915
H       -0.2438145669   -2.0712903689   -2.4040148819
O       -1.4966645101    2.2692288200   -0.2973446926
H       -0.8121207410    1.8700840909   -0.8736415910
H       -2.2598017081    1.7017258153   -0.4077622450
18   
Iteration 3 Energy -0.03984646
O        0.9536478187   -1.3151643813    0.3487056516
H        1.7494650108   -1.8288106265    0.5181355622
H        1.1478342752   -0.4421704576    0.7652985163
O       -1.1560232338   -0.8020129051    2.2329290321
H       -0.5539122497   -1.1710883348    1.5684853909
H       -1.0261016688    0.1452868097    2.1564140169
O        2.0507008009    0.9782113052    1.1222652458
H        1.7924627948    1.7940445902    0.6724935835
H        2.9837650213    1.0968697034    1.3056836674
O        0.4343407864    0.9178063032   -1.7409718159
H        1.3142302272    0.5385783685   -1.7847659390
H       -0.1122510319    0.3000568422   -2.2359155333
O       -0.9407664409   -2.1736338109   -1.7876841649
H       -0.5479064450   -1.9780036857   -0.9176327867
H       -0.1984210787   -2.1804288922   -2.3827334110
O       -1.4729316862    2.2622035391   -0.2752497193
H       -0.7760980957    1.9014351991   -0.8576215731
H       -2.2150348046    1.6748204336   -0.4208357235
18   
Iteration 4 Energy -0.04481160
O        0.9113934431   -1.3780474490    0.3395201734
H        1.6309437780   -1.9497847574    0.6055261371
H        1.2206391548   -0.5005684394    0.6805090588
O       -1.1570249419   -0.7866477797    2.2213467955
H       -0.5963788281   -1.1545556711    1.5359174495
H       -1.0240456758    0.1595667589    2.1492837349
O        2.2087293866    0.9685497578    1.0821474664
H        1.6814576297    1.6710989836    0.6824073064
H        3.0087790287    1.4110369706    1.3844273572
O        0.3573159300    0.9659396181   -1.7878427745
H        1.2313586458    0.5643042456   -1.8585641163
H       -0.2206508036    0.3402953095   -2.2338338596
O       -0.8960015877   -2.1127948395   -1.8019648567
H       -0.5316971627   -1.9255803210   -0.9375647961
H       -0.1354527124   -2.3707429174   -2.3246952405
O       -1.4161057106    2.2421809778   -0.2243948021
H       -0.7021575634    1.9194729577   -0.7960330875
H       -2.1441020106    1.6542765952   -0.4291919458
18   
Iteration 5 Energy -0.04841435
O        0.9007559149   -1.3676541186    0.3435997248
H        1.5089226893   -2.0349884213    0.6645376021
H        1.3329382734   -0.5272367767    0.6034691702
O       -1.1567662652   -0.7786058300    2.2069501783
H       -0.6030980910   -1.1353585106    1.5110519979
H       -1.0436944742    0.1694820307    2.1347333961
O        2.2469992740    0.9639603236    1.0230893295
H        1.6309154104    1.6113455001    0.6653278247
H        2.9240753902    1.5240950930    1.4232524563
O        0.3170093726    0.9672354864   -1.8257557304
H        1.1866952272    0.5608126774   -1.9049388512
H       -0.2710400291    0.3231145566   -2.2348522238
O       -0.8221690257   -2.0252160279   -1.8018584095
H       -0.4399976364   -1.8598914063   -0.9418339892
H       -0.1210694816   -2.4862704072   -2.2687589654
O       -1.3731802875    2.2293747152   -0.1633498005
H       -0.6734819034    1.9135944581   -0.7558940009
H       -2.1168143580    1.6702066574   -0.3917697089
18   
Iteration 6 Energy -0.05388032
O        0.9046609646   -1.3705556434    0.3390208254
H        1.2561250334   -2.1218694681    0.8266358010
H        1.5682402917   -0.6803024863    0.4584707103
O       -1.1539023130   -0.7598945168    2.1676685770
H       -0.5819298073   -1.0517590055    1.4497403052
H       -1.1200918860    0.1938482927    2.0961877815
O        2.2664483895    1.0208022202    0.8749592454
H        1.5018421425    1.5141281623    0.5705759886
H        2.6908494021    1.6221237823    1.5024612328
O        0.2269699088    0.9278682952   -1.9141536111
H        1.0984534330    0.5408564920   -2.0110313201
H       -0.3644162606    0.2235261076   -2.2178379371
O       -0.5547662017   -1.8050989057   -1.8276700535
H       -0.1488176969   -1.6855553863   -0.9587332073
H       -0.2025148883   -2.6485539195   -2.1251955853
O       -1.2541719862    2.1835328324   -0.0066064222
H       -0.6375786565    1.8785859221   -0.6948357810
H       -2.0683998689    1.7363172247   -0.2426565496
18   
Iteration 7 Energy -0.05738389
O        0.9289711101   -1.4035097844    0.3991408157
H        1.2514527982   -2.1179108338    0.9584282329
H        1.6242421883   -0.7349769684    0.4437223133
O       -1.1418784426   -0.7406410282    2.1316459277
H       -0.5464326840   -0.9894627240    1.4103463999
H       -1.1819861342    0.2152154266    2.0787615845
O        2.2136035120    1.0224225518    0.8044771020
H        1.4312706522    1.5107894985    0.5327877967
H        2.5819117065    1.5870438835    1.4927231178
O        0.1743574706    0.9033373155   -1.9394562653
H        1.0644497447    0.5685171976   -2.0496077907
H       -0.3558335493    0.1224771134   -2.1712788522
O       -0.4491993861   -1.7222576304   -1.9095478457
H       -0.0161340785   -1.5953234611   -1.0367621363
H       -0.2983095018   -2.6524052915   -2.0839746061
O       -1.1687988514    2.1298713889    0.0594072274
H       -0.6414364421    1.8296708540   -0.7043204082
H       -2.0432501127    1.7851424918   -0.1294926135
18   
Iteration 8 Energy -0.06113999
O        0.9448596659   -1.4593762002    0.4337649819
H        1.3515674343   -2.0967197196    1.0312934635
H        1.5663974243   -0.7098868092    0.4571752405
O       -1.1401736655   -0.7097670392    2.1057575510
H       -0.5051757502   -0.9314781356    1.4035518091
H       -1.2319462990    0.2427543582    2.0399421835
O        2.1137552824    0.9946450186    0.7536175983
H        1.3571189104    1.5470756005    0.5182393085
H        2.5408588509    1.5077788433    1.4415614642
O        0.1510130617    0.9037073788   -1.9521370154
H        1.0756180288    0.6852512007   -2.0791809412
H       -0.2814299333    0.0414201197   -2.1112953205
O       -0.4118534343   -1.7066881625   -1.9472406342
H        0.0365718760   -1.5937502914   -1.0725078465
H       -0.3765671359   -2.6500292374   -2.0946033348
O       -1.0861742443    2.0586996040    0.1082739244
H       -0.6684475131    1.7595617714   -0.7253767291
H       -2.0089925592    1.8348016998   -0.0238357033
18   
Iteration 9 Energy -0.06506864
O        1.0038060894   -1.5513474863    0.4703604203
H        1.4974603030   -2.0359254756    1.1412694659
H        1.4545443915   -0.6713421599    0.4725143507
O       -1.1495413245   -0.6208580479    2.0601235087
H       -0.4614960642   -0.8653967538    1.4127464101
H       -1.2908607732    0.3175202252    1.9164057263
O        1.9256502594    0.9704340213    0.6545869216
H        1.1931664870    1.5863515055    0.4795099462
H        2.4260501919    1.3936620857    1.3493115141
O        0.0998374741    0.8915660606   -2.0122220049
H        1.0418545067    0.9022490093   -2.1998751570
H       -0.1122847270   -0.0714285492   -2.0421084931
O       -0.2939275486   -1.6923586650   -1.9818042465
H        0.1356781925   -1.6936200899   -1.0900067286
H       -0.5371105737   -2.6091574918   -2.0946597933
O       -0.9408430199    1.8934287746    0.2396755745
H       -0.6669961336    1.6571148630   -0.6779157846
H       -1.8979877307    1.9171081742    0.1890883696
18   
Iteration 10 Energy -0.06775736
O        1.0338876769   -1.5850235230    0.4783778643
H        1.5368496962   -2.0085832462    1.1805408183
H        1.4006371223   -0.6616906764    0.4928580526
O       -1.1599000198   -0.5620425577    2.0412017200
H       -0.4806303764   -0.8688094298    1.4191677997
H       -1.2615094456    0.3663982325    1.8180483452
O        1.8810555726    0.9747546634    0.6190109373
H        1.0997330283    1.5347812407    0.4569463347
H        2.3353082754    1.4195114212    1.3338914660
O        0.0779276121    0.9575509870   -2.0511912948
H        1.0091910470    0.9930034428   -2.2856966259
H       -0.1029555925   -0.0151010503   -2.0620857310
O       -0.2058817022   -1.7642701532   -1.9705000198
H        0.1858827190   -1.7952972639   -1.0699628792
H       -0.6218227265   -2.6194835565   -2.0771442465
O       -0.8626496820    1.8040466786    0.3153306492
H       -0.6286328974    1.5969651418   -0.6191915743
H       -1.8094903075    1.9512896490    0.2673983843
18   
Iteration 11 Energy -0.07029424
O        1.0247769501   -1.5632434784    0.4743329580
H        1.5318425202   -1.9874867237    1.1710538488
H        1.3858571215   -0.6466837031    0.4571107573
O       -1.1572106130   -0.5235672807    2.0295331696
H       -0.5175829399   -0.9364186996    1.4407230936
H       -1.1655345944    0.3864558666    1.7178812618
O        1.8335581249    0.9543148307    0.6532206451
H        1.0253113668    1.4752497758    0.5029096832
H        2.3044907419    1.4529469159    1.3247266748
O        0.0603298366    0.9614528626   -2.0615557849
H        0.9900274206    1.0284039775   -2.2959542389
H       -0.1240362390    0.0026340933   -2.1386683246
O       -0.1696472275   -1.7572150701   -1.9172472901
H        0.2244396808   -1.8423471375   -1.0312311008
H       -0.6249281284   -2.5918920400   -2.0544981878
O       -0.8346571334    1.7742479789    0.3386363885
H       -0.5952968262    1.5319212806   -0.5798602905
H       -1.7647400616    1.9992265514    0.2558867368
18   
Iteration 12 Energy -0.07151142
O        1.0108607752   -1.5924119159    0.5015607061
H        1.5001188714   -2.0081184701    1.2145025835
H        1.3959173757   -0.6914965306    0.4573377938
O       -1.1446002850   -0.4683696056    1.9992551035
H       -0.5560609713   -1.0002088491    1.4573706365
H       -1.0741835888    0.4066939383    1.5986431037
O        1.8467504591    1.0029690260    0.6648921235
H        0.9567738021    1.3696617808    0.5204493113
H        2.2099901495    1.5597442239    1.3601535797
O        0.0174505875    0.9598897467   -2.0753581589
H        0.9308730941    1.0505112786   -2.3589970457
H       -0.1454253423    0.0020315538   -2.1637900591
O       -0.0987870875   -1.7653075814   -1.9349259814
H        0.2810320914   -1.8467342129   -1.0425028636
H       -0.6553596725   -2.5461148297   -2.0065161491
O       -0.7923942567    1.7325464384    0.3680821934
H       -0.5618707806    1.4975747567   -0.5548749978
H       -1.6940852214    2.0551392521    0.2817181207
18   
Iteration 13 Energy -0.07223016
O        1.0003061337   -1.5825503365    0.5232740351
H        1.5433583532   -2.0102130949    1.1890269386
H        1.3563352941   -0.6722034496    0.5001131258
O       -1.1270969735   -0.4557282371    1.9914425714
H       -0.5843280483   -1.0837745570    1.5039556365
H       -0.9802379934    0.3802716940    1.5229728314
O        1.8172407967    0.9748833838    0.7267715942
H        0.9306924056    1.3677363769    0.6340945087
H        2.2517549225    1.5817507430    1.3339368713
O        0.0261475728    0.9509553106   -2.0482802727
H        0.9323889630    1.0543769616   -2.3475095482
H       -0.1313563308   -0.0003066325   -2.1904632044
O       -0.1702774215   -1.7384177701   -1.9265551451
H        0.2578085884   -1.8090483998   -1.0526179498
H       -0.6231183532   -2.5793563191   -2.0166514749
O       -0.8012287984    1.7507572434    0.3161330571
H       -0.5839022166    1.4737843271   -0.6002476053
H       -1.6874868943    2.1150827563    0.2276040303
18   
Iteration 14 Energy -0.07260598
O        1.0161660982   -1.6013373367    0.5352146002
H        1.5583131753   -2.0162091415    1.2117528660
H        1.3716889447   -0.6884937221    0.5052599232
O       -1.1305957352   -0.4507267136    1.9817746539
H       -0.5573202186   -1.0548630272    1.4936609497
H       -1.0265417699    0.3856903808    1.5015825436
O        1.7629821280    0.9661285808    0.7192832248
H        0.8840173225    1.3834599860    0.6395139304
H        2.2227646016    1.5589915012    1.3179718156
O        0.0159726119    0.9375914154   -2.0786640369
H        0.9101632811    1.0737901399   -2.3994015677
H       -0.1057650272   -0.0310981761   -2.1656324728
O       -0.1361764785   -1.7372178211   -1.9439543020
H        0.2900614841   -1.8018444803   -1.0645618964
H       -0.6420757475   -2.5486438865   -2.0079968084
O       -0.7745699977    1.7211229532    0.3450206624
H       -0.5921580901    1.4839634873   -0.5943838917
H       -1.6399265826    2.1376958604    0.2905598061
18   
Iteration 15 Energy -0.07270747
O        1.0175621425   -1.6024933998    0.5188410461
H        1.5461790915   -2.0633289261    1.1783464353
H        1.4098552867   -0.7011518648    0.5281233577
O       -1.1368527745   -0.4982438167    2.0033166380
H       -0.5312680038   -1.0319409051    1.4695086685
H       -1.0995134840    0.3653777397    1.5651139795
O        1.8241655045    0.9716600850    0.7496177246
H        0.9392881187    1.3716667872    0.6240593453
H        2.2582128300    1.5755995688    1.3524274004
O        0.0186855525    0.9374971174   -2.0974870870
H        0.9164217466    1.0252610761   -2.4251314753
H       -0.1479490581   -0.0322424260   -2.1356272723
O       -0.1542279757   -1.7327730564   -1.9519709151
H        0.2729351550   -1.7636229977   -1.0689907329
H       -0.6144257475   -2.5713981848   -2.0050513634
O       -0.8119900243    1.7824306493    0.3325089980
H       -0.5849223503    1.5362836721   -0.5979226181
H       -1.6951560096    2.1494188815    0.2473178706
18   
Iteration 16 Energy -0.07337724
O        1.0225381638   -1.6073630237    0.5219579784
H        1.5646323722   -2.0674312545    1.1696920914
H        1.3889722007   -0.6955242239    0.5383514062
O       -1.1296649202   -0.4765467485    1.9848520459
H       -0.5388912594   -1.0525436189    1.4824363941
H       -1.0684172528    0.3678044883    1.5134741371
O        1.8016430219    0.9660399331    0.7726455333
H        0.9078291998    1.3478472240    0.6586346897
H        2.2440084693    1.5937348439    1.3464654799
O        0.0025243968    0.9505517456   -2.0911569877
H        0.8900681229    1.0478673150   -2.4436950938
H       -0.1422686822   -0.0191547358   -2.1499024720
O       -0.1451326316   -1.7366559154   -1.9336822466
H        0.2792210463   -1.7829287315   -1.0528363227
H       -0.6155117753   -2.5700206759   -1.9951920166
O       -0.7939309272    1.7579977725    0.3236495321
H       -0.5854490456    1.5159022804   -0.6087973257
H       -1.6551704994    2.1784233253    0.2501031770
18   
Iteration 17 Energy -0.07374331
O        1.0317082611   -1.6199886938    0.5292781173
H        1.5956492440   -2.0861495591    1.1521901929
H        1.3793343752   -0.7013878510    0.5683802296
O       -1.1224790723   -0.4639471151    1.9628494167
H       -0.5358984357   -1.0662113966    1.4889140006
H       -1.0515268323    0.3587782677    1.4555339076
O        1.7742042407    0.9500441082    0.8173639698
H        0.8771486060    1.3268530926    0.7152200782
H        2.2269715387    1.6154982800    1.3398367941
O       -0.0163595080    0.9516860484   -2.1032078835
H        0.8522942222    1.0670342333   -2.4949443856
H       -0.1516929066   -0.0180477496   -2.1553160061
O       -0.1385762459   -1.7300173685   -1.9169635833
H        0.2893783318   -1.7810508591   -1.0387188521
H       -0.6067845648   -2.5647714848   -1.9823602413
O       -0.7830244545    1.7438075668    0.3193387074
H       -0.5851229221    1.5039389518   -0.6148663015
H       -1.6082238774    2.2319315288    0.2444718392
18   
Iteration 18 Energy -0.07421199
O        1.0531398654   -1.6401051600    0.5355192991
H        1.6396630678   -2.1344934199    1.1135565701
H        1.3887234851   -0.7189243318    0.6179545572
O       -1.1191236209   -0.4750974569    1.9373041522
H       -0.5085093788   -1.0623832170    1.4754962205
H       -1.0848075837    0.3406284808    1.4154318973
O        1.7436396681    0.9278311128    0.8999671834
H        0.8493570575    1.3056463850    0.7828186812
H        2.2202330484    1.6347975878    1.3409583427
O       -0.0498915824    0.9611535424   -2.1303822004
H        0.7850141525    1.0740811197   -2.5896341934
H       -0.1682025767   -0.0123595965   -2.1456945041
O       -0.1329246344   -1.7181440168   -1.8925246469
H        0.3017903995   -1.7650364996   -1.0169229032
H       -0.5824100766   -2.5630402912   -1.9603793517
O       -0.7770026578    1.7427894317    0.3057062424
H       -0.5832450439    1.5088934315   -0.6301309456
H       -1.5484435890    2.3117628981    0.2279555994
18   
Iteration 19 Energy -0.07457336
O        1.0849391137   -1.6629700858    0.5484213879
H        1.6945793322   -2.1941227017    1.0666455323
H        1.4155926906   -0.7475350209    0.6949301476
O       -1.1260847108   -0.5002101901    1.9057474854
H       -0.4804696634   -1.0552719437    1.4512006671
H       -1.1302456410    0.3133531011    1.3802551565
O        1.7255923114    0.9056232473    1.0110511957
H        0.8311678756    1.2676523784    0.8557452153
H        2.2083818016    1.6612088738    1.3535751316
O       -0.0919991018    0.9740530840   -2.1727820915
H        0.6843032237    1.0776942275   -2.7266023558
H       -0.2007709115   -0.0003907830   -2.1346905446
O       -0.1266093616   -1.7014432964   -1.8636073454
H        0.3152770890   -1.7422881936   -0.9904982789
H       -0.5498913799   -2.5597837046   -1.9317320013
O       -0.7757934365    1.7535073683    0.2870127928
H       -0.5782019950    1.5191178271   -0.6476945277
H       -1.4727672364    2.4098058123    0.2000224329
18   
Iteration 20 Energy -0.07471827
O        1.0977882379   -1.6659600424    0.5580960788
H        1.7065181959   -2.2056163670    1.0691872634
H        1.4324834860   -0.7539892083    0.7115787777
O       -1.1402914015   -0.5149526175    1.8933956101
H       -0.4793841423   -1.0529338064    1.4395081288
H       -1.1481510682    0.3077526175    1.3826844766
O        1.7227648014    0.8999453860    1.0338073972
H        0.8322913675    1.2609799155    0.8569996525
H        2.2034810430    1.6610943855    1.3658651321
O       -0.1077483989    0.9759535265   -2.1858595499
H        0.6418032951    1.0782978759   -2.7756102552
H       -0.2072740238    0.0009687063   -2.1327502317
O       -0.1179738291   -1.6925183933   -1.8551486923
H        0.3267581008   -1.7336130272   -0.9832044727
H       -0.5467532373   -2.5480401476   -1.9236064260
O       -0.7677306039    1.7550628468    0.2852431010
H       -0.5734925356    1.5174838378   -0.6498102028
H       -1.4480892869    2.4280845119    0.1966242124
18   
Iteration 21 Energy -0.07509412
O        1.1402722073   -1.6777398641    0.5950367168
H        1.7500185049   -2.2255847747    1.0976131202
H        1.4700421944   -0.7685295379    0.7650299780
O       -1.2004643210   -0.5599851942    1.8439745845
H       -0.4933232989   -1.0587513934    1.4142244202
H       -1.1846851552    0.2883386221    1.3781088370
O        1.7204184245    0.8883340219    1.0967149822
H        0.8415730555    1.2386545204    0.8512271371
H        2.1859721430    1.6639941995    1.4131817793
O       -0.1562276609    0.9865731033   -2.2257574972
H        0.4783373728    1.0949393685   -2.9369615063
H       -0.2135527466    0.0100857699   -2.1351123731
O       -0.0875653152   -1.6647684043   -1.8290988920
H        0.3631806965   -1.7207728634   -0.9607192353
H       -0.5439036202   -2.5060120483   -1.8915517516
O       -0.7278175863    1.7522364310    0.2775736571
H       -0.5570506591    1.5044822677   -0.6607478730
H       -1.3582242357    2.4725057761    0.1942639163
18   
Iteration 22 Energy -0.07536705
O        1.1653212025   -1.6838624487    0.6274908642
H        1.7725486687   -2.2293445858    1.1359553605
H        1.4900029963   -0.7735911113    0.7985783641
O       -1.2544447405   -0.5947780167    1.7889855726
H       -0.5162416490   -1.0847306124    1.4045454698
H       -1.1968409476    0.2724987063    1.3640991230
O        1.7303928895    0.8830896688    1.1386527800
H        0.8635632103    1.2287111888    0.8443006365
H        2.1782949447    1.6664865787    1.4607284250
O       -0.1919042475    0.9936691885   -2.2572980757
H        0.3224723520    1.1102729452   -3.0584630148
H       -0.2041397764    0.0174023797   -2.1460525204
O       -0.0620434616   -1.6431217755   -1.8033955191
H        0.3985500301   -1.7066943277   -0.9409617605
H       -0.5455356020   -2.4693996564   -1.8611061422
O       -0.6880547556    1.7479269822    0.2691876510
H       -0.5427045864    1.4924028504   -0.6718977192
H       -1.2922365275    2.4910620458    0.1936505051
18   
Iteration 23 Energy -0.07565027
O        1.1781178648   -1.6831686753    0.6620683506
H        1.7789172476   -2.2219363384    1.1846670688
H        1.5006280895   -0.7712144668    0.8292453204
O       -1.3079267963   -0.6264169958    1.7231536539
H       -0.5445965537   -1.1180089611    1.3960580895
H       -1.1888466326    0.2502018610    1.3326839694
O        1.7482689843    0.8804591719    1.1691297265
H        0.8931312908    1.2286563219    0.8423889242
H        2.1814492278    1.6630191207    1.5138579748
O       -0.2247880964    1.0030477368   -2.2845392653
H        0.1531769059    1.1197773642   -3.1582323795
H       -0.1856034660    0.0287931612   -2.1593165405
O       -0.0351835018   -1.6218462067   -1.7812642411
H        0.4324256860   -1.6951525162   -0.9238885758
H       -0.5465805100   -2.4323520359   -1.8216303847
O       -0.6415130102    1.7404577669    0.2556014967
H       -0.5260326447    1.4824174617   -0.6885041618
H       -1.2380440849    2.4912662300    0.1955209738
18   
Iteration 24 Energy -0.07592397
O        1.1694987073   -1.6770779940    0.6895277248
H        1.7633758373   -2.2085138706    1.2262562054
H        1.4909922591   -0.7620489480    0.8490413924
O       -1.3360161585   -0.6444520435    1.6529445151
H       -0.5636950430   -1.1572426658    1.3865230482
H       -1.1659879210    0.2311466333    1.2804099795
O        1.7768720182    0.8817981680    1.1880838544
H        0.9267195656    1.2390979658    0.8561963940
H        2.2040791081    1.6551878263    1.5616440930
O       -0.2493573152    1.0087372980   -2.3016099702
H        0.0193579646    1.1177907996   -3.2155607779
H       -0.1756579163    0.0383675014   -2.1628602382
O       -0.0158430069   -1.6078337539   -1.7633743309
H        0.4576639364   -1.6782001349   -0.9097578004
H       -0.5446409022   -2.4081596974   -1.7839121342
O       -0.6038243641    1.7366579143    0.2412933627
H       -0.5067648631    1.4798507951   -0.7043365563
H       -1.2197719062    2.4728942062    0.1964912385
18   
Iteration 25 Energy -0.07612843
O        1.1567940509   -1.6705605205    0.7140530816
H        1.7437253007   -2.2020014876    1.2574949365
H        1.4826544319   -0.7556959408    0.8740299054
O       -1.3491261255   -0.6572722567    1.5811574308
H       -0.5668811198   -1.1785740126    1.3630416718
H       -1.1470102732    0.2103784263    1.2061663785
O        1.8013925395    0.8802558061    1.2086305661
H        0.9534330492    1.2476733902    0.8817972825
H        2.2286328287    1.6441348789    1.6021457342
O       -0.2786245834    1.0112073731   -2.3180445779
H       -0.1006350107    1.1020971364   -3.2557182115
H       -0.1725942602    0.0455568731   -2.1700166889
O        0.0042589971   -1.5968553060   -1.7471606166
H        0.4788263807   -1.6583121918   -0.8940325594
H       -0.5414192381   -2.3863499714   -1.7456037183
O       -0.5730895979    1.7374404368    0.2364769859
H       -0.4811868811    1.4904872513   -0.7120246829
H       -1.2121504888    2.4543901152    0.2046070821
18   
Iteration 26 Energy -0.07626366
O        1.1500569790   -1.6633912379    0.7292006992
H        1.7291652723   -2.2015569841    1.2742764679
H        1.4832049146   -0.7513896865    0.8946659461
O       -1.3493730547   -0.6643788609    1.5252612929
H       -0.5551920090   -1.1783259197    1.3283570856
H       -1.1519865277    0.2028446079    1.1464604460
O        1.8166415754    0.8770636135    1.2210719896
H        0.9754618560    1.2624923634    0.8994788924
H        2.2574028478    1.6257340656    1.6285481284
O       -0.3002581720    1.0102073630   -2.3211307184
H       -0.1670476380    1.0840213867   -3.2678708292
H       -0.1829010948    0.0485507114   -2.1568332621
O        0.0139985025   -1.5910388784   -1.7386345079
H        0.4847731535   -1.6428494835   -0.8829235116
H       -0.5384627174   -2.3756133941   -1.7216301643
O       -0.5541440227    1.7407101684    0.2328058693
H       -0.4602415172    1.5053421169   -0.7180344555
H       -1.2240983475    2.4295780482    0.2139306316
18   
Iteration 27 Energy -0.07634063
O        1.1659508025   -1.6700815349    0.7496983755
H        1.7459051176   -2.2185716263    1.2836837178
H        1.4963189190   -0.7603990429    0.9324252198
O       -1.3608356269   -0.6756723141    1.4565936808
H       -0.5495829828   -1.1742391841    1.2854394111
H       -1.1682015215    0.1936082874    1.0794189769
O        1.8224144744    0.8683523320    1.2707333454
H        0.9887680421    1.2554684195    0.9326163559
H        2.2727117423    1.6215304267    1.6579308737
O       -0.3333780316    1.0117231259   -2.3441143484
H       -0.2821353262    1.0647728752   -3.3002287717
H       -0.1868450767    0.0559345347   -2.1698433566
O        0.0259865266   -1.5780048718   -1.7172790020
H        0.4988847559   -1.6233483669   -0.8623644872
H       -0.5323656714   -2.3581494104   -1.6916627261
O       -0.5329640935    1.7473291018    0.2296971835
H       -0.4412148599    1.5210188372   -0.7239947018
H       -1.2024171901    2.4367284111    0.2182502535
18   
Iteration 28 Energy -0.07638405
O        1.1713843314   -1.6688937172    0.7461949116
H        1.7466533031   -2.2204159603    1.2827161168
H        1.5056801931   -0.7616192502    0.9289194507
O       -1.3574709586   -0.6679347517    1.4461989676
H       -0.5459585963   -1.1619900585    1.2628845735
H       -1.1709914902    0.2040179225    1.0713587617
O        1.8217174336    0.8676806374    1.2674783893
H        0.9908483250    1.2607565227    0.9307682227
H        2.2774724198    1.6170670509    1.6553432442
O       -0.3338718950    1.0043707262   -2.3264655173
H       -0.2561789438    1.0572187578   -3.2809756736
H       -0.2035961554    0.0469752438   -2.1501557306
O        0.0201911174   -1.5785837933   -1.7184256674
H        0.4930635439   -1.6225688869   -0.8632870444
H       -0.5367244115   -2.3598117706   -1.6960443025
O       -0.5335916604    1.7525880578    0.2317114744
H       -0.4400773640    1.5255985159   -0.7217298154
H       -1.2215491920    2.4235447535    0.2205096387
18   
Iteration 29 Energy -0.07642126
O        1.1834658302   -1.6696457643    0.7497233817
H        1.7578042383   -2.2231493553    1.2856064348
H        1.5163466919   -0.7636029857    0.9387471248
O       -1.3634971077   -0.6675565223    1.4205711780
H       -0.5518260547   -1.1633948233    1.2455966236
H       -1.1684115563    0.2088732519    1.0603259825
O        1.8181544287    0.8657871047    1.2812595059
H        0.9908795061    1.2576276021    0.9342394981
H        2.2754628186    1.6184855707    1.6606304234
O       -0.3420660604    1.0050766674   -2.3274146297
H       -0.2788393117    1.0547516071   -3.2830429629
H       -0.2087822819    0.0482258840   -2.1485304787