124  
Iteration 0 Energy -2503.57658822
C      102.0140000000   14.9730000000   80.2930000000
C      102.1170000000   13.4520000000   79.9330000000
C      102.5640000000   12.7660000000   81.2010000000
C      104.1030000000   12.6320000000   81.0650000000
C      104.7330000000   11.9110000000   82.2700000000
C      105.5030000000   12.9200000000   83.0790000000
C      106.9010000000   13.1690000000   82.4680000000
C      107.6710000000   14.2160000000   83.3380000000
C      107.7520000000   15.5890000000   82.6130000000
N      106.4330000000   16.3900000000   82.8150000000
C      106.1080000000   17.2820000000   81.7160000000
C      104.5870000000   17.2780000000   81.4940000000
C      104.0960000000   17.8730000000   80.1710000000
C      102.6990000000   17.3270000000   79.8760000000
C      102.0630000000   18.1380000000   78.7640000000
C      100.5327328200   17.9744755900   78.8200546800
C      100.7425980300   12.9145988300   79.4927509600
C      104.4236978200   11.8382172300   79.7848977300
C      105.6310000000   12.4070000000   84.5190000000
C      109.0972434600   13.7003542900   83.6054679500
C      106.4610000000   17.0670000000   84.1200000000
C      106.5746065800   18.7095347000   82.0566214600
C      105.0190000000   17.5140000000   78.9960000000
O      101.3550000000   15.3270000000   81.2530000000
O      104.8120000000   14.1600000000   83.1090000000
O      103.9812152200   18.0113188700   82.5617866100
O      104.0240000000   19.3080000000   80.3000000000
O      102.7750000000   15.9580000000   79.4360000000
C      105.1700000000    9.5630000000   82.0590000000
C      106.0420000000    8.5490000000   81.3490000000
C      105.4360000000    7.1980000000   81.4790000000
C      105.2200000000    6.8580000000   82.8980000000
C      104.5460000000    7.9680000000   83.7140000000
C      104.6487271400    7.6134824800   85.2091135300
C      107.5830000000    6.0730000000   81.4850000000
C      105.6760000000    4.8730000000   80.7370000000
O      105.6110000000   10.8760000000   81.8340000000
O      106.1447214500    8.8943377400   79.9651321800
N      106.3200000000    6.1930000000   80.8060000000
O      105.1490000000    9.2910000000   83.5010000000
C      100.7610000000   11.6080000000   82.2990000000
C       99.7450000000   10.5630000000   81.9130000000
C      100.0850000000    9.2030000000   82.4070000000
C      100.3630000000    9.2280000000   83.8630000000
C      101.4650000000   10.2040000000   84.1710000000
C      101.7149812000   10.2040359700   85.6905754000
C       98.8730000000    8.2400000000   82.0950000000
C      101.1300000000    8.0730000000   80.5340000000
O      101.9050000000   11.4980000000   81.4630000000
O      101.2900000000    8.7370000000   81.7650000000
O      100.8680000000    7.9370000000   84.2710000000
O      101.1550000000   11.5810000000   83.7420000000
H      102.0950010700   17.3887765700   80.7570612600
H      105.9317298600   17.1016172000   79.3725164300
H      104.5347261300   16.7949559700   78.3688202000
H      105.2332280000   18.3954554800   78.4285120300
H      104.9119973200   19.6713099100   80.3326599100
H      102.3160730700   19.1704642000   78.8859495700
H      102.4243220100   17.7914981900   77.8183346800
H      100.2763877400   17.2789442600   79.5916914900
H      100.0802528400   18.9213854800   79.0286776200
H      100.1783202900   17.6094794200   77.8787420000
H      104.2464378700   16.2651280200   81.5488433400
H      104.6655253400   18.3924802500   83.1167962100
H      106.6000427200   16.9476485500   80.8266164600
H      107.5152573800   18.8997418900   81.5834435700
H      105.8500895800   19.4147029300   81.7063174900
H      106.6826734800   18.8060178000   83.1167688800
H      107.3412846400   17.6712919900   84.1894992500
H      105.5942987700   17.6866138100   84.2190339100
H      106.4677917100   16.3357354200   84.9010928100
H      108.5708494200   16.1508768600   83.0113466100
H      107.9102583900   15.4272792800   81.5671985400
H      107.1615712600   14.3405954900   84.2706619500
H      109.7571045800   14.5314230800   83.7426100600
H      109.0980232400   13.0949387100   84.4877215200
H      109.4275639100   13.1164277600   82.7719103900
H      107.4496028000   12.2505924500   82.4464932600
H      106.7931938400   13.5435083900   81.4714954600
H      106.5313655900   12.7873393300   84.9544122200
H      104.7901563900   12.7384107600   85.0917555700
H      105.6607609900   11.3374204900   84.5152657100
H      105.4469450600   14.8798204600   83.1264150100
H      103.9584643200   11.4877879400   82.8748851400
H      104.5303597800   13.6095636100   80.9835566900
H      105.3524699400   11.3215789000   79.9088621500
H      103.6434740300   11.1298217800   79.5996229800
H      104.4979719900   12.5117266200   78.9567863500
H      102.3585983900   13.4201958300   82.0224243700
H      102.8390757900   13.3033275200   79.1574981900
H      100.8183962300   11.8673335900   79.2868622800
H      100.0301720800   13.0736395800   80.2750906000
H      100.4242841600   13.4294341900   78.6104126900
H      100.3192830600   12.5640247100   82.1097834600
H       99.6733120700   10.5321787900   80.8458491700
H       98.7937147200   10.8453157500   82.3133175300
H       99.1592970400    7.2291373700   82.2977085300
H       98.0392122200    8.5049226000   82.7110470400
H       98.5992546300    8.3334232200   81.0648371100
H      101.9574539400    7.4136965400   80.3741909700
H      100.2214730400    7.5079738300   80.5489731200
H      101.0894634900    8.7926501000   79.7432026000
H      101.8278585400    7.9527136800   84.2660339400
H       99.4779927900    9.4752622700   84.4112003400
H      102.3571192700    9.8824281800   83.6754046300
H      102.6349416300   10.7084437800   85.9006839000
H      100.9108129400   10.7084505000   86.1843156100
H      101.7728772800    9.1952386300   86.0425355800
H      104.1722761500    9.4725674000   81.6831422300
H      107.0171567200    8.5464812100   81.7894123400
H      107.0704665700    8.9558744200   79.7185369600
H      103.5122186600    8.0143330500   83.4418798300
H      105.5442243600    8.0356155900   85.6150548600
H      103.8008134800    8.0087239000   85.7284656700
H      104.6725189200    6.5497873400   85.3226327000
H      104.6087088100    5.9812167000   82.9477405500
H      106.1681132300    6.6379236700   83.3424634000
H      104.4878485200    7.2020135100   80.9831243400
H      108.3146888800    6.6734138900   80.9859664000
H      107.4774154600    6.4065097800   82.4961988600
H      107.8960521700    5.0498453000   81.4777336100
H      106.3051752200    4.1443386800   81.2040023800
H      104.7343889100    4.9086036900   81.2439526000
H      105.5197820600    4.6054628800   79.7128321200
124  
Iteration 1 Energy -2503.64068284
C      101.9545177243   15.0207416273   80.3518776054
C      102.0550339293   13.5213701125   79.9525765740
C      102.5399828765   12.7959688941   81.2066140815
C      104.0740312877   12.6547788239   81.0614159628
C      104.6810886034   11.9122138232   82.2773099956
C      105.4433498887   12.9177245417   83.1186853845
C      106.8560220822   13.1673915918   82.5296142490
C      107.6487639820   14.2083702053   83.3879794622
C      107.7466793477   15.5750312024   82.6581967975
N      106.4544073096   16.3886745313   82.8598797051
C      106.1461264088   17.2756820818   81.7173919476
C      104.6089916284   17.2972503805   81.4899575323
C      104.1072471777   17.8522920915   80.1307011671
C      102.6832922280   17.3286790869   79.8737239768
C      102.0365467999   18.1081201849   78.7362189658
C      100.4961555175   17.9865405607   78.8130714994
C      100.6718825271   13.0081248759   79.5057903584
C      104.4032741695   11.8878740395   79.7572396404
C      105.5412926802   12.3916012218   84.5636025548
C      109.0712802964   13.6709387929   83.6545909056
C      106.5199763940   17.0303745578   84.1853401344
C      106.6512773397   18.7224043293   81.9710502518
C      105.0074123725   17.4316662198   78.9461496790
O      101.3335628881   15.4348409396   81.3027392415
O      104.7404867544   14.1566025926   83.1391616084
O      103.9993237328   18.0893202466   82.5149467692
O      104.0541409781   19.2895966521   80.2013615140
O      102.7116997177   15.9449595454   79.4794520633
C      105.1142696447    9.5656829610   82.0626389769
C      106.0161806048    8.5631759881   81.3688455426
C      105.4079001717    7.1978166679   81.4664263946
C      105.1387494134    6.8544858724   82.8979697623
C      104.4340448677    7.9664475464   83.6868762669
C      104.4808415322    7.6288444926   85.1882006986
C      107.5918184538    6.0775729261   81.4834755447
C      105.6561849216    4.8878409735   80.6888867747
O      105.5681667589   10.8729638685   81.8622426310
O      106.1602443051    8.9284281177   79.9944531970
N      106.3155843285    6.2061518124   80.7950061032
O      105.0412104928    9.2808475574   83.4922031792
C      100.7844445483   11.5937298526   82.3144883168
C       99.7836982217   10.5250099644   81.9355278664
C      100.1704236285    9.1552462857   82.4104046097
C      100.4810095392    9.1818719410   83.8727349875
C      101.5669555949   10.2004310577   84.1565407595
C      101.8587833036   10.2354809094   85.6665650992
C       98.9781444754    8.1697451269   82.1234082545
C      101.2809398576    8.0672421139   80.5001907737
O      101.9084920021   11.5196423674   81.4531663151
O      101.3818881887    8.7280927069   81.7447527422
O      101.0121415326    7.9007946156   84.2690737318
O      101.2073100673   11.5563565504   83.7319749800
H      102.0935551010   17.4401289780   80.7676648594
H      105.9290483984   17.0131276315   79.3055242696
H      104.5007143684   16.6950669552   78.3469348400
H      105.2249146733   18.2947536428   78.3394765155
H      104.9509413764   19.6369418208   80.2043234563
H      102.3187175932   19.1436651926   78.8126057551
H      102.3788484349   17.7110756806   77.7947939698
H      100.2215256286   17.3265931501   79.6188925789
H      100.0625925308   18.9572268776   78.9880434044
H      100.1131709706   17.5906102400   77.8868998032
H      104.2496969632   16.2861868569   81.5926054606
H      104.6779067533   18.4944406964   83.0578911336
H      106.6347506306   16.8882735699   80.8429563744
H      107.5997133688   18.8647175119   81.4794946335
H      105.9427648263   19.4306350922   81.5814535015
H      106.7751079998   18.9018449162   83.0195320315
H      107.4251764953   17.6091172120   84.2775842152
H      105.6710986858   17.6731797084   84.3244494370
H      106.5110206587   16.2680661046   84.9462582515
H      108.5821202597   16.1309827687   83.0548044530
H      107.8978921686   15.4114348939   81.6046157008
H      107.1434048619   14.3490268688   84.3270988176
H      109.7553080902   14.4933495185   83.7873706260
H      109.0686237488   13.0652337266   84.5459658133
H      109.3959646390   13.0720009447   82.8199293539
H      107.3974868033   12.2374608392   82.5124028956
H      106.7547894051   13.5452990176   81.5253016576
H      106.4337283900   12.7653647177   85.0358316037
H      104.6803696364   12.7218117376   85.1206155720
H      105.5714247368   11.3147959669   84.5564629984
H      105.3641141618   14.8962203433   83.1704849252
H      103.8864626945   11.4846107483   82.8649526994
H      104.5066245696   13.6379744444   81.0005230713
H      105.3326934784   11.3609791273   79.8669206769
H      103.6194297669   11.1794267326   79.5441566449
H      104.4865788593   12.5814439520   78.9369481817
H      102.3449296642   13.4346186685   82.0510757573
H      102.7668147645   13.3957156551   79.1581204484
H      100.7411833668   11.9619292029   79.2624942845
H       99.9589228824   13.1441574996   80.3003003369
H      100.3438968111   13.5562642998   78.6375954627
H      100.3188848071   12.5513763429   82.1577358330
H       99.6871994178   10.5094396551   80.8627682811
H       98.8280199660   10.7806197896   82.3642187581
H       99.2922139696    7.1578378409   82.3168227548
H       98.1492124824    8.4158584729   82.7661061277
H       98.6693823034    8.2587685489   81.0956526152
H      102.1547920870    7.4522483263   80.3619171311
H      100.4039870295    7.4457345621   80.4745026364
H      101.2263071126    8.7937819920   79.7037292408
H      101.9732476419    7.9380432010   84.2422675262
H       99.5954026904    9.4063437996   84.4440242580
H      102.4622304462    9.9009412937   83.6364287325
H      102.7726974740   10.7774433875   85.8460859505
H      101.0466607975   10.7253157223   86.1783564991
H      101.9603550240    9.2303251710   86.0379536529
H      104.1200965222    9.4779142219   81.6522296956
H      106.9831364569    8.5611749695   81.8458970893
H      107.0956087068    8.9976982568   79.7811556383
H      103.4030254094    8.0124829111   83.3727564039
H      105.3674108145    8.0583133054   85.6243599039
H      103.6113962085    8.0308149327   85.6815693903
H      104.5004103167    6.5594883207   85.3175863141
H      104.5218662690    5.9712882802   82.9324261910
H      106.0727094777    6.6365947705   83.3856461300
H      104.4689801917    7.1999671402   80.9360595200
H      108.3314054780    6.6916317873   80.9936322180
H      107.5057673510    6.3903119484   82.5100666017
H      107.9163777667    5.0517641175   81.4587409768
H      106.2676275387    4.1312833731   81.1508652147
H      104.6979598359    4.9136432325   81.1819175651
H      105.5108666229    4.6389774287   79.6497593710
124  
Iteration 2 Energy -2503.66387801
C      101.9424164387   15.0199214176   80.3511382717
C      102.0297451667   13.5286366034   79.9541439881
C      102.5103936142   12.7926720891   81.2164377712
C      104.0439462700   12.6348196703   81.0799659584
C      104.6443958826   11.8871883547   82.3035008609
C      105.4078838464   12.8902235230   83.1607514833
C      106.8250134463   13.1389738283   82.5788170703
C      107.6285846724   14.1756269168   83.4310465675
C      107.7313427093   15.5363822384   82.6962811049
N      106.4537248866   16.3549899629   82.8884314330
C      106.1617168341   17.2337629643   81.7267034031
C      104.6219247422   17.2677338790   81.4833426986
C      104.1316968315   17.8047485113   80.1016088346
C      102.6967225389   17.2960336680   79.8482043385
C      102.0556532718   18.0580660728   78.6905082302
C      100.5097893421   17.9589297011   78.7608028447
C      100.6412271041   13.0385433811   79.4967303336
C      104.3804272736   11.8676500004   79.7736646212
C      105.4977017682   12.3561016660   84.6066196102
C      109.0501703071   13.6309708654   83.6996558624
C      106.5186725067   17.0005657650   84.2116340418
C      106.6881011322   18.6820773537   81.9538147303
C      105.0354795061   17.3517483359   78.9256892447
O      101.3252418879   15.4470533659   81.2928551812
O      104.6991801452   14.1286568308   83.1808856111
O      104.0042476330   18.0830538265   82.4855465116
O      104.0876694490   19.2413332909   80.1407404512
O      102.7048111769   15.9050697046   79.4810578410
C      105.1361845607    9.5270093649   82.0593173536
C      106.0909941453    8.5905470180   81.3398146113
C      105.5522459919    7.1868234881   81.3979678205
C      105.2963786976    6.7979216272   82.8321890538
C      104.5357377200    7.8579838762   83.6405268406
C      104.5973209461    7.4995227912   85.1360458438
C      107.8021164104    6.1810329876   81.3719246634
C      105.9040626939    4.9176224856   80.5505717132
O      105.5409072331   10.8509493383   81.8890871464
O      106.2166775014    9.0037040811   79.9780553153
N      106.5065046435    6.2630299025   80.6961696215
O      105.0747907601    9.1989294497   83.4742184778
C      100.7336276091   11.6582528076   82.3101100940
C       99.7013974863   10.6097064187   81.9475232368
C      100.0353472368    9.2334918513   82.4675532775
C      100.3268739644    9.3013447704   83.9411289415
C      101.4440935081   10.3027312357   84.2032332505
C      101.7193278067   10.4036097021   85.7116303085
C       98.8179450181    8.2834965687   82.1963426892
C      101.1534880390    8.0508940555   80.6080243151
O      101.8608350014   11.5306117593   81.4589196585
O      101.2418545323    8.7459184015   81.8362681609
O      100.7965247112    8.0184384120   84.3941307029
O      101.1324652319   11.6431375641   83.7217089240
H      102.1053260541   17.4344674610   80.7419659770
H      105.9575457732   16.9282930964   79.2887872720
H      104.5251371766   16.6063735458   78.3334725597
H      105.2635409048   18.2051676585   78.3016371679
H      104.9894915709   19.5787815036   80.1390359621
H      102.3527107443   19.0946673556   78.7450457774
H      102.3980637699   17.6337713277   77.7557606308
H      100.2161111391   17.3188702911   79.5817705294
H      100.0836367056   18.9417650580   78.9123646973
H      100.1205976740   17.5465038973   77.8390475342
H      104.2506439481   16.2576904777   81.6027891974
H      104.6783332526   18.4961009855   83.0294125700
H      106.6545286162   16.8225451966   80.8620407252
H      107.6459553871   18.8025481964   81.4647290831
H      105.9937999010   19.3985182320   81.5451970519
H      106.8108944473   18.8890043294   83.0015934577
H      107.4320222739   17.5756991224   84.3149958123
H      105.6708438815   17.6522762923   84.3473992371
H      106.4974921256   16.2368566171   84.9766055492
H      108.5747845611   16.0928487754   83.0906920550
H      107.8804014215   15.3671379233   81.6389848239
H      107.1244468132   14.3238400674   84.3740322403
H      109.7455856854   14.4504465629   83.8304890852
H      109.0469462158   13.0254387292   84.5968058360
H      109.3753651990   13.0237047674   82.8653331548
H      107.3614742128   12.2017819875   82.5615266679
H      106.7261520248   13.5194427129   81.5700820014
H      106.3886275932   12.7258595952   85.0947351390
H      104.6286999711   12.6857526419   85.1599364997
H      105.5279023517   11.2749283537   84.5971668839
H      105.3194959971   14.8775495052   83.2171138688
H      103.8429575011   11.4578667543   82.8878798768
H      104.4803088877   13.6205477381   81.0244223809
H      105.3091064849   11.3335529041   79.8852618326
H      103.5936538787   11.1584085913   79.5499896532
H      104.4736045388   12.5628321861   78.9496950592
H      102.3182018790   13.4350233748   82.0643264481
H      102.7435309101   13.3960321758   79.1586837387
H      100.6969681445   11.9884772047   79.2487062210
H       99.9200078692   13.1816350239   80.2880359307
H      100.3236825494   13.5960469256   78.6247929369
H      100.3024415677   12.6322677964   82.1292536974
H       99.6156063314   10.5722073218   80.8698844972
H       98.7456762367   10.9082207900   82.3606318539
H       99.0942406565    7.2641025871   82.4283351385
H       97.9866087813    8.5800694264   82.8218412496
H       98.5212451239    8.3477801843   81.1585396702
H      102.0188948642    7.4082609452   80.5160544605
H      100.2599039379    7.4462447242   80.5700559739
H      101.1425183867    8.7553710949   79.7828749124
H      101.7592592206    8.0197347455   84.3814069930
H       99.4367753294    9.5768856341   84.4913962986
H      102.3395293367    9.9538811533   83.7063948629
H      102.6497206330   10.9301737153   85.8788288198
H      100.9123582951   10.9429665723   86.1905786810
H      101.7876252108    9.4129529025   86.1363508547
H      104.1424544182    9.4021908985   81.6421641724
H      107.0597853444    8.6254391812   81.8232852868
H      107.1489907011    9.1275633660   79.7712721848
H      103.5006111304    7.8594078303   83.3206452018
H      105.4650130993    7.9674014682   85.5814619197
H      103.7079397092    7.8496634194   85.6414771358
H      104.6703565078    6.4263006406   85.2508281540
H      104.7213178435    5.8808325874   82.8502289442
H      106.2416512376    6.6166242644   83.3228693498
H      104.6112980620    7.1538200690   80.8623100757
H      108.5084822331    6.8484810308   80.8913334372
H      107.7232398498    6.4584245766   82.4144596855
H      108.1830454566    5.1719217456   81.3132599672
H      106.5498437085    4.1673821639   80.9857835824
H      104.9431922600    4.8790588827   81.0480070834
H      105.7627532520    4.6932860256   79.5000896867
124  
Iteration 3 Energy -2503.69526341
C      101.8933279327   15.0891273259   80.3934632794
C      101.9629405256   13.6414547813   79.9478017488
C      102.5150929701   12.8503117104   81.1803943425
C      104.0337797865   12.6734663450   81.0188940938
C      104.5855519679   11.9107376796   82.2682613055
C      105.3481738265   12.9006044748   83.1780585956
C      106.7811644126   13.1320081905   82.6351409629
C      107.6036344674   14.1553657275   83.4771192992
C      107.7092055269   15.5023679305   82.7328157042
N      106.4623959964   16.3175287220   82.9120719291
C      106.1792581137   17.1925222988   81.7360277112
C      104.6325174051   17.2495853886   81.4866991320
C      104.1280305968   17.7757833813   80.0790393014
C      102.6586217639   17.3105217242   79.8724626460
C      101.9768813930   18.0517648434   78.7111889455
C      100.4237769754   17.9932605295   78.8233120866
C      100.5583417414   13.1900342071   79.4984695175
C      104.3742830190   11.9345984423   79.6897483543
C      105.3783279145   12.3511577928   84.6272685557
C      109.0192788282   13.5915228128   83.7623062507
C      106.5219384548   16.9802896767   84.2213610558
C      106.7527803362   18.6341155309   81.9337893764
C      105.0057404387   17.2794797282   78.8871917434
O      101.3037830567   15.4729752015   81.3613573665
O      104.6404729859   14.1459884693   83.1730945312
O      104.0176476381   18.0846733683   82.4734324407
O      104.0953083043   19.2058894381   80.0775635466
O      102.6132302435   15.9127716781   79.5416667367
C      105.0186582308    9.5508680435   82.0446764954
C      106.0097865642    8.5947936687   81.3903160727
C      105.4359898106    7.1824617801   81.4203807731
C      105.0599937404    6.8276578686   82.8695701130
C      104.2683378716    7.9278944051   83.5927506334
C      104.2058345110    7.6350384413   85.1002019463
C      107.6815087856    6.1352617951   81.5139272801
C      105.7556290452    4.9115527932   80.5902765708
O      105.4749754737   10.8482731897   81.9035514389
O      106.2331417004    9.0035240392   80.0424972202
N      106.4014537144    6.2381341465   80.7802255649
O      104.8487454740    9.2305580705   83.4329199329
C      100.8409540806   11.6286464793   82.3273262058
C       99.8400054013   10.5308227376   81.9908672280
C      100.2866807307    9.1367416461   82.4414466239
C      100.6808673512    9.1969167455   83.9153140468
C      101.7531168117   10.2843138238   84.1151654247
C      102.1329514806   10.4363392297   85.5895269191
C       99.1242769940    8.1352034691   82.2296286107
C      101.3681924454    8.0864108035   80.4816504866
O      101.9130085320   11.5768602448   81.4032468303
O      101.4749567414    8.7421028603   81.7303238157
O      101.2240036910    7.9382203373   84.3210639833
O      101.3234505890   11.5805103640   83.6698002284
H      102.0995274744   17.4908434862   80.7910224032
H      105.9443462457   16.8377203748   79.2167719363
H      104.4735351435   16.5248249047   78.3073294154
H      105.2347104045   18.1262931296   78.2350894404
H      105.0074313798   19.5226252270   80.0425013118
H      102.3054012094   19.0902654642   78.7229092475
H      102.2861299701   17.5856255136   77.7709272021
H      100.1196387581   17.3820169044   79.6773206008
H      100.0110951574   18.9971112939   78.9568593465
H       99.9828985812   17.5600288291   77.9204970413
H      104.2405744792   16.2366608273   81.6280427836
H      104.6958732941   18.5061258354   83.0126271006
H      106.6702054113   16.7510012988   80.8754042755
H      107.7247355104   18.7236672278   81.4402655153
H      106.0841956885   19.3819278367   81.5141916018
H      106.8914360082   18.8733910752   82.9884984034
H      107.4443274910   17.5681778866   84.3452323484
H      105.6607923136   17.6380677685   84.3473554853
H      106.4893697637   16.2191817673   85.0026208448
H      108.5688710547   16.0683741188   83.1208333117
H      107.8550585303   15.3222647392   81.6657530177
H      107.0974553867   14.3243718946   84.4277356495
H      109.7452883496   14.4004285327   83.8961190001
H      109.0085485761   12.9844899078   84.6729993805
H      109.3541715541   12.9631053553   82.9319829602
H      107.3018174375   12.1747439763   82.6213998578
H      106.6974676102   13.5156403267   81.6128219773
H      106.2561397156   12.7003506743   85.1773658031
H      104.4803092775   12.6923573370   85.1487686685
H      105.3958171488   11.2580119857   84.6167816269
H      105.2649830034   14.9072116645   83.2254491823
H      103.7458053563   11.4929944796   82.8259302623
H      104.4837770348   13.6643728315   80.9862791851
H      105.3025101402   11.3790803220   79.7821314122
H      103.5787900793   11.2276545062   79.4315948583
H      104.4832545627   12.6503788540   78.8692024734
H      102.3538030688   13.4701417429   82.0655282824
H      102.6529222081   13.5428510903   79.1161327560
H      100.5968390228   12.1424113619   79.1955740550
H       99.8386946495   13.3002957709   80.3106443520
H      100.2202458037   13.7952380182   78.6514271970
H      100.3573690055   12.6020991181   82.2340072226
H       99.6784387309   10.5324535719   80.9094919528
H       98.8898264872   10.7640219845   82.4845573095
H       99.4735340224    7.1176005136   82.4199800890
H       98.3138364959    8.3702427799   82.9246853114
H       98.7398502176    8.1995822758   81.2081395979
H      102.2848671261    7.5081862043   80.3392426902
H      100.5142750412    7.4052490473   80.4434333946
H      101.2768638719    8.8179050320   79.6661030105
H      102.1849463177    7.9925774477   84.2376505503
H       99.8048152988    9.4133948943   84.5337330662
H      102.6417596327    9.9909594393   83.5470272025
H      103.0406835094   11.0388359255   85.6828608168
H      101.3190780335   10.9316119861   86.1280414583
H      102.3075802719    9.4553587701   86.0333717494
H      104.0357284053    9.4476590562   81.5596380222
H      106.9508778770    8.6184675106   81.9521657326
H      107.1829990137    9.1113692104   79.9065697788
H      103.2477867677    7.9486240779   83.1873097430
H      105.0620445128    8.1027507204   85.5933905830
H      103.2891777139    8.0321618330   85.5424055431
H      104.2370588118    6.5561027928   85.2747128017
H      104.4532799918    5.9161735334   82.8762098693
H      105.9687891151    6.6346453609   83.4458854934
H      104.5258507338    7.1621336110   80.8105622764
H      108.4308326839    6.7931372680   81.0553460755
H      107.5979466166    6.4137922951   82.5711316324
H      108.0570140698    5.1118827989   81.4691666070
H      106.3443822591    4.1146366443   81.0528609897
H      104.7546372265    4.8882780439   81.0330102655
H      105.6596109418    4.6929824940   79.5200205375
124  
Iteration 4 Energy -2503.71154753
C      101.9034689128   15.0891347509   80.4334129987
C      101.9519589340   13.6404956490   80.0007581561
C      102.4901665918   12.8327457287   81.2377763737
C      104.0092116808   12.6344951108   81.0740430414
C      104.5874065181   11.8751459003   82.3164287674
C      105.3605524662   12.8658429559   83.2256467945
C      106.7811742441   13.1132960127   82.6603684405
C      107.6219225807   14.1377746356   83.4826440854
C      107.7087421823   15.4876177146   82.7439113399
N      106.4741742598   16.3013557845   82.9315102274
C      106.1966243243   17.1667081481   81.7397430875
C      104.6538352125   17.2311348071   81.4827268511
C      104.1697829561   17.7197927470   80.0518821208
C      102.6918879213   17.2791508826   79.8571000656
C      102.0128517469   17.9857459043   78.6717974934
C      100.4599655306   17.9479376373   78.7853726151
C      100.5413292844   13.2227942841   79.5411896653
C      104.3322942346   11.9047966789   79.7373868486
C      105.4209385037   12.3020679263   84.6669883806
C      109.0436984969   13.5788255459   83.7409704666
C      106.5360296712   16.9575232465   84.2426095039
C      106.7879572167   18.6086731391   81.8807989042
C      105.0441400812   17.1727338970   78.8796446839
O      101.3100101216   15.5028908918   81.3959178238
O      104.6297190560   14.0972740494   83.2375926154
O      104.0260869100   18.0947527268   82.4346603098
O      104.1495208082   19.1470900104   80.0011272921
O      102.6268100458   15.8692118222   79.5790435515
C      105.0961755192    9.5206767032   82.0754308661
C      106.1160394474    8.6318289731   81.3640810270
C      105.6358836814    7.1800333239   81.4021838227
C      105.3477142184    6.7948398960   82.8702780534
C      104.5240762099    7.8394977084   83.6372648257
C      104.5603606136    7.5393268645   85.1445005552
C      107.9443247757    6.2759657209   81.3558921369
C      106.0421773681    4.9483385374   80.5195839801
O      105.4913625970   10.8336434540   81.9344575758
O      106.2517070035    9.0685279365   80.0144235592
N      106.6180909549    6.3052923685   80.7041878388
O      105.0132005709    9.1716153270   83.4593508392
C      100.7321724976   11.6879487688   82.3331432565
C       99.6754539431   10.6536419606   81.9599803057
C      100.0040202947    9.2293660343   82.4257252336
C      100.3446823854    9.2761611537   83.9190349605
C      101.4795162274   10.2968918391   84.1586733994
C      101.8079452029   10.4605261227   85.6416269511
C       98.7872408200    8.3163373381   82.1777516353
C      101.1108563732    8.1079566861   80.5164618381
O      101.8287810612   11.5839052383   81.4352558866
O      101.1917085807    8.7525549381   81.7716227735
O      100.7576960081    7.9852519173   84.3568396605
O      101.1496301472   11.6064476675   83.6823023606
H      102.1367239606   17.4994277335   80.7708352229
H      105.9799621997   16.7255402973   79.2161195613
H      104.5050973023   16.4064629633   78.3186798883