9    
Iteration 0 Energy -228.73547822
O        0.8556237138   -1.3818976259    0.3173538155
H        1.6746796629   -1.8471219649    0.4856375088
H        1.1172361800   -0.4682733188    0.2056811804
O       -1.0982625284   -0.8580828910    2.1724631078
H       -0.4029651704   -1.1456966573    1.5813109035
H       -1.0847470506    0.0967976121    2.1121133005
O        1.8638563656    1.2197718722    1.3326640992
H        2.0097975347    1.8822901978    0.6578398910
H        2.6411662827    0.6630381517    1.2943569165
9    
Iteration 1 Energy -228.73835042
O        0.8900704363   -1.4044625838    0.2516736248
H        1.7164361262   -1.8670468339    0.4268865901
H        1.1378752010   -0.4706025840    0.2398863395
O       -1.1611331401   -0.8371676003    2.2392451082
H       -0.4821437824   -1.1692721736    1.6355754696
H       -1.0684061024    0.1142767016    2.1351317144
O        1.8517988053    1.2140587396    1.2972198845
H        2.0298891889    1.8851627588    0.6279516543
H        2.6645332673    0.6952635755    1.3092496147
9    
Iteration 2 Energy -228.74032111
O        0.8871833417   -1.4012336020    0.2069516536
H        1.7120313791   -1.8784817652    0.3728811384
H        1.1450877083   -0.4754762972    0.3479883552
O       -1.1870225184   -0.8232837077    2.2823490356
H       -0.5478291147   -1.2031018083    1.6544960570
H       -1.0203059831    0.1212822784    2.1594790237
O        1.8404849287    1.1882187781    1.2216510711
H        2.0513926750    1.8787137415    0.5753718107
H        2.6978975838    0.7535723822    1.3416518548
9    
Iteration 3 Energy -228.74141831
O        0.8739208940   -1.3662025376    0.1642310229
H        1.6717112520   -1.8917831201    0.3258655951
H        1.1411600262   -0.4815465109    0.4758241086
O       -1.1929467884   -0.8109645769    2.3224068641
H       -0.6272257428   -1.2430755983    1.6581647060
H       -0.9446201953    0.1156234535    2.1911566540
O        1.8554645381    1.1326179250    1.1194698565
H        2.0620300913    1.8470865033    0.4958936835
H        2.7394259254    0.8584544616    1.4098075095
9    
Iteration 4 Energy -228.74216619
O        0.8526530904   -1.3656760681    0.1633661022
H        1.6310719498   -1.9094448612    0.3435989661
H        1.1447402787   -0.4834242161    0.4505548607
O       -1.1740902604   -0.8172644954    2.3152787333
H       -0.6278007987   -1.2437415541    1.6359412968
H       -0.9251639282    0.1090371590    2.1995204161
O        1.8712575614    1.1317294680    1.1265523226
H        2.0496105312    1.8323560565    0.4827637448
H        2.7566415764    0.9066385110    1.4452435574
9    
Iteration 5 Energy -228.74326581
O        0.7820874370   -1.3447320021    0.1541248934
H        1.4695863496   -1.9787173352    0.3836725019
H        1.1774561477   -0.5038363886    0.4302451134
O       -1.1090938597   -0.8418539430    2.2999858659
H       -0.6339929586   -1.2318083652    1.5557087712
H       -0.8382532816    0.0793310422    2.2395580766
O        1.9173295721    1.1168721368    1.1152699282
H        2.0426545034    1.7752698982    0.4235055238
H        2.7711460914    1.0896849564    1.5607493251
9    
Iteration 6 Energy -228.74350968
O        0.7638946790   -1.3401417548    0.1414463952
H        1.4040789303   -2.0155781890    0.3914489263
H        1.1968668556   -0.5226827937    0.4332076116
O       -1.0845102744   -0.8507694001    2.2988714999
H       -0.6297725328   -1.2124877348    1.5262190238
H       -0.8059675666    0.0703986304    2.2665002240
O        1.9274620898    1.1143344152    1.1033273588
H        2.0533152988    1.7646640481    0.4031849705
H        2.7535525217    1.1524727782    1.5986139890
9    
Iteration 7 Energy -228.74374108
O        0.7557353219   -1.3386434055    0.1103759933
H        1.3178829860   -2.0689566724    0.3963233041
H        1.2340174245   -0.5575589769    0.4337015513
O       -1.0513418572   -0.8572642556    2.3036561567
H       -0.6193245866   -1.1706064327    1.4937827198
H       -0.7657715438    0.0641246316    2.3167457363
O        1.9291655705    1.1104021123    1.0825138023
H        2.0704838157    1.7611078969    0.3832108671
H        2.7080728710    1.2176051022    1.6425098678
9    
Iteration 8 Energy -228.74381882
O        0.7612366697   -1.3437737657    0.0918582541
H        1.2923303642   -2.0875677778    0.4026932756
H        1.2507356209   -0.5716487521    0.4207650540
O       -1.0345007679   -0.8542538754    2.3056766975
H       -0.6077525503   -1.1443580948    1.4835277142
H       -0.7527437503    0.0680685349    2.3415311547
O        1.9179752182    1.1075873298    1.0771158240
H        2.0689791205    1.7636980584    0.3840666563
H        2.6826600769    1.2224583425    1.6555853679
9    
Iteration 9 Energy -228.74393128
O        0.7762834711   -1.3586073522    0.0592826047
H        1.2678526298   -2.1069015605    0.4206913868
H        1.2707247543   -0.5893982766    0.3875604709
O       -1.0020357060   -0.8407435635    2.3073973894
H       -0.5839380049   -1.0990572244    1.4701629015
H       -0.7295595460    0.0823623395    2.3757089806
O        1.8871276982    1.0995315808    1.0743125096
H        2.0529180026    1.7687617936    0.3969144730
H        2.6395467030    1.2042622630    1.6707892819
9    
Iteration 10 Energy -228.74404131
O        0.7927198724   -1.3774386426    0.0274899293
H        1.2558678683   -2.1145853272    0.4447026344
H        1.2785728389   -0.6009820923    0.3505081492
O       -0.9634181226   -0.8188289200    2.3080735127
H       -0.5615180029   -1.0593058678    1.4584956547
H       -0.6943231684    0.1031363996    2.3946630144
O        1.8489966383    1.0867908337    1.0772944833
H        2.0256234715    1.7713823487    0.4185247658
H        2.5963986068    1.1700412677    1.6830678542
9    
Iteration 11 Energy -228.74427704
O        0.8259781629   -1.4210864623   -0.0347488445
H        1.2289591027   -2.1180301313    0.4974378104
H        1.2817069912   -0.6230050597    0.2768640881
O       -0.8702244283   -0.7626970420    2.3082240633
H       -0.5218045913   -0.9876050822    1.4332233583
H       -0.5900632707    0.1535567619    2.4069058050
O        1.7642517573    1.0545042954    1.0906979215
H        1.9573899343    1.7715387663    0.4733393884
H        2.5027263449    1.0930339542    1.7108764067
9    
Iteration 12 Energy -228.74436101
O        0.9030443545   -1.5240770309   -0.1461330932
H        1.1342648937   -2.1039895010    0.5891487280
H        1.2879462969   -0.6812187652    0.1363179260
O       -0.6482694517   -0.6310367263    2.3031352410
H       -0.4498781375   -0.8453194901    1.3837953413
H       -0.3166137590    0.2677531495    2.3835236593
O        1.5772897400    0.9825752358    1.1301558986
H        1.7981201561    1.7632258025    0.6084839135
H        2.2930159105    0.9322973264    1.7743923830
9    
Iteration 13 Energy -228.74469467
O        0.8488899396   -1.4603709503   -0.0725844584
H        1.2170136924   -2.1031914007    0.5454082142
H        1.2554765424   -0.6327740207    0.2265413171
O       -0.7804426363   -0.7046809364    2.3072216940
H       -0.5080411458   -0.9557850966    1.4147848392
H       -0.4629521470    0.2024716779    2.3593711223
O        1.6905669102    1.0247144621    1.1134230606
H        1.8893837093    1.7705126906    0.5344270772
H        2.4290251384    1.0193135746    1.7342271316
9    
Iteration 14 Energy -228.74493151
O        0.8489972274   -1.4701877964   -0.0759436223
H        1.2115523115   -2.0978880129    0.5608436121
H        1.2385774620   -0.6336532046    0.2206057946
O       -0.7485233958   -0.6852715031    2.3050094442
H       -0.5159536139   -0.9638504071    1.4092658837
H       -0.4070576752    0.2150399417    2.3180736467
O        1.6711292516    1.0191666803    1.1240786446
H        1.8701851287    1.7735458000    0.5564710897
H        2.4100133073    1.0033085029    1.7444155041
9    
Iteration 15 Energy -228.74487385
O        0.8512737487   -1.5360968923   -0.1013093263
H        1.1230447570   -2.0898099377    0.6418859577
H        1.1744499345   -0.6672728469    0.1815445095
O       -0.5313083450   -0.5718764027    2.2788527870
H       -0.5533255749   -0.9698365030    1.3972230717
H       -0.0771401453    0.2554399853    2.0773965272
O        1.5532884331    1.0015777304    1.1803078943
H        1.7643025478    1.8041562624    0.6872991221
H        2.2743346508    0.9339286079    1.8196194497
9    
Iteration 16 Energy -228.74534402
O        0.8205655361   -1.4802304573   -0.0629065755
H        1.1756828806   -2.1043992662    0.5827411037
H        1.1977278413   -0.6409054555    0.2436736370
O       -0.6865254561   -0.6568186750    2.2950492236
H       -0.5737620338   -1.0259184364    1.4068863651
H       -0.2691191651    0.2065189042    2.1862296495
O        1.6648567354    1.0339341487    1.1417636997
H        1.8596748836    1.8014495542    0.5895421184
H        2.3898187833    1.0265796855    1.7798407734
9    
Iteration 17 Energy -228.74541315
O        0.8278472540   -1.4967622289   -0.0759345136
H        1.1585668115   -2.1075510297    0.5948519466
H        1.2003560699   -0.6533527740    0.2239424582
O       -0.6582516032   -0.6412961318    2.2947916263
H       -0.5701770182   -1.0086610713    1.4042348577
H       -0.2290667207    0.2142753208    2.1751495977
O        1.6430890673    1.0320641305    1.1467614097
H        1.8425258797    1.8093231250    0.6099940007
H        2.3640302653    1.0121706617    1.7890286112
9    
Iteration 18 Energy -228.74544216
O        0.8316897165   -1.5170841954   -0.0850580319
H        1.1385913301   -2.1093657373    0.6132255110
H        1.1971832743   -0.6669327613    0.2033287317
O       -0.6189212501   -0.6179410621    2.2910887974
H       -0.5799486504   -1.0024459469    1.4044406105
H       -0.1642313042    0.2192295954    2.1377767209
O        1.6182323274    1.0328923624    1.1560384823
H        1.8193658096    1.8249623819    0.6416198373
H        2.3369587530    0.9968953662    1.8003593344
9    
Iteration 19 Energy -228.74545063
O        0.8305925383   -1.5148989197   -0.0835412960
H        1.1413866134   -2.1096785561    0.6107599683
H        1.1986741158   -0.6660393781    0.2052732293
O       -0.6283970901   -0.6220768525    2.2923143843
H       -0.5825593783   -1.0042578717    1.4050845458
H       -0.1737265243    0.2160534112    2.1450240225
O        1.6257244415    1.0334258130    1.1533452540
H        1.8225682046    1.8252277808    0.6369351430
H        2.3446570854    1.0024545759    1.7976247426
9    
Iteration 20 Energy -228.74546253
O        0.8293793938   -1.5173237578   -0.0825381118
H        1.1407117424   -2.1098556980    0.6133107443
H        1.2006453672   -0.6683565810    0.2014037837
O       -0.6357124631   -0.6227843659    2.2929574617
H       -0.5914324340   -1.0055593592    1.4061145033
H       -0.1714191548    0.2102330625    2.1473273255
O        1.6337338939    1.0338899439    1.1510196505
H        1.8191640919    1.8312918453    0.6390829279
H        2.3538495691    1.0086749136    1.7941417085
9    
Iteration 21 Energy -228.74548663
O        0.8266196225   -1.5275792573   -0.0808777577
H        1.1321869102   -2.1087013736    0.6268835568
H        1.2052806250   -0.6769103924    0.1865734272
O       -0.6452625319   -0.6193921755    2.2919772556
H       -0.6143367307   -1.0053265463    1.4062901992
H       -0.1493184951    0.1950032374    2.1456679205
O        1.6497291178    1.0327756867    1.1471634214
H        1.7999012588    1.8488036463    0.6534036760
H        2.3741202316    1.0215371789    1.7857382939
9    
Iteration 22 Energy -228.74551839
O        0.8231661355   -1.5441217668   -0.0788095882
H        1.1125589780   -2.1038961364    0.6525005132
H        1.2121986303   -0.6909848047    0.1631685961
O       -0.6505478178   -0.6106689979    2.2873503589
H       -0.6440467993   -0.9991760841    1.4025875577
H       -0.1057282168    0.1715451446    2.1387816938
O        1.6693753776    1.0280960834    1.1430358009
H        1.7607212863    1.8710870018    0.6812313497
H        2.4012224367    1.0383295658    1.7729737094
9    
Iteration 23 Energy -228.74557486
O        0.8175403223   -1.5788853377   -0.0741956725
H        1.0601167354   -2.0861835596    0.7105398631
H        1.2289760332   -0.7239063567    0.1157277464
O       -0.6488391859   -0.5879752407    2.2733286688
H       -0.6979673530   -0.9731074620    1.3888617030
H       -0.0064151472    0.1157971937    2.1204853571
O        1.7081491591    1.0166059144    1.1342115372
H        1.6642020891    1.9006346192    0.7483726313
H        2.4531573631    1.0772302380    1.7454881540
9    
Iteration 24 Energy -228.74563002
O        0.8178112548   -1.5985222306   -0.0712231341
H        1.0191571241   -2.0673745074    0.7485126595
H        1.2427572124   -0.7443280193    0.0889452925
O       -0.6353022599   -0.5709166963    2.2607653012
H       -0.7184456003   -0.9469525232    1.3749193880
H        0.0564879691    0.0844961180    2.1063446710
O        1.7240526968    1.0050117299    1.1311619700
H        1.5935633448    1.9016073943    0.7970873775
H        2.4788382775    1.0971887454    1.7263064609
9    
Iteration 25 Energy -228.74571379
O        0.8261295963   -1.6097228190   -0.0687924236
H        0.9626086136   -2.0389886230    0.7856580429
H        1.2624537662   -0.7581449041    0.0750571582
O       -0.6027655737   -0.5537879478    2.2410045218
H       -0.7108929741   -0.9086373891    1.3485813063
H        0.1172321822    0.0727265567    2.0927334700
O        1.7219551938    0.9779493757    1.1361999008
H        1.5080115865    1.8753510776    0.8500868464
H        2.4941876314    1.1034646860    1.7022911616
9    
Iteration 26 Energy -228.74574384
O        0.8260765443   -1.6004264134   -0.0684126083
H        0.9545232481   -2.0422536830    0.7808191099
H        1.2644917810   -0.7527476551    0.0918187159
O       -0.6071664543   -0.5626805415    2.2388256812
H       -0.7068036770   -0.9053343600    1.3405973721
H        0.1083870251    0.0717077270    2.1032964838
O        1.7302803669    0.9734053430    1.1375511895
H        1.5086309269    1.8637846499    0.8359011002
H        2.5005002609    1.1147549463    1.7024229401
9    
Iteration 27 Energy -228.74578511
O        0.8320127962   -1.5862900690   -0.0691002222
H        0.9344006984   -2.0466621247    0.7738090879
H        1.2757330167   -0.7478278260    0.1218843088
O       -0.6147882761   -0.5776430505    2.2326521281
H       -0.7033501092   -0.8887334443    1.3219814573
H        0.0998449457    0.0630484966    2.1261344781
O        1.7400849255    0.9659697812    1.1440592035
H        1.4985116805    1.8426684944    0.8190856914
H        2.5164703445    1.1356797557    1.6923138506
9    
Iteration 28 Energy -228.74582248
O        0.8418068013   -1.5733686037   -0.0697136164
H        0.9201769888   -2.0518412965    0.7657629380
H        1.2896024824   -0.7436433608    0.1484837638
O       -0.6254979493   -0.5924928143    2.2261122677
H       -0.7031155207   -0.8726674652    1.3044996510
H        0.0893131749    0.0521947360    2.1498145686
O        1.7417307202    0.9630919048    1.1569388819
H        1.4892862096    1.8273601199    0.8080337577
H        2.5356171153    1.1515767937    1.6728877707
9    
Iteration 29 Energy -228.74587475
O        0.8622592116   -1.5607156131   -0.0730729430
H        0.8894508085   -2.0557820543    0.7559172637
H        1.3156413385   -0.7446869228    0.1822695749
O       -0.6388834049   -0.6107896176    2.2141744106
H       -0.7100673246   -0.8408874797    1.2783882453
H        0.0890859855    0.0227193224    2.1816629316
O        1.7408814534    0.9635986405    1.1844165509
H        1.4621034478    1.8075488193    0.8068847032
H        2.5684485069    1.1792049199    1.6321792448
9    
Iteration 30 Energy -228.74590173
O        0.8774782510   -1.5500435904   -0.0786429470
H        0.8898763846   -2.0613626422    0.7407292784
H        1.3240936772   -0.7374517141    0.1991458592
O       -0.6460263454   -0.6227914931    2.2116043029
H       -0.7084615037   -0.8354585210    1.2711100689
H        0.0759326843    0.0182863073    2.1991684758
O        1.7225559169    0.9710096227    1.2119880058
H        1.4651948979    1.8044195090    0.7972908576
H        2.5782760594    1.1736025359    1.6104260806
9    
Iteration 31 Energy -228.74591214
O        0.8839468614   -1.5587178140   -0.0817604092
H        0.8647717423   -2.0519012443    0.7484228171
H        1.3302300176   -0.7450159673    0.1927005209
O       -0.6396720193   -0.6176518453    2.2073919849
H       -0.7218744951   -0.8225684727    1.2668473264
H        0.1095054246   -0.0084631665    2.1907903069
O        1.7255542287    0.9715683419    1.2230308521
H        1.4383155871    1.8006795604    0.8190368849
H        2.5881426761    1.1922806232    1.5963596971
9    
Iteration 32 Energy -228.74591840
O        0.8809323653   -1.5571257933   -0.0838973337
H        0.8805191290   -2.0528441044    0.7449956981
H        1.3216454537   -0.7388240705    0.1858758197
O       -0.6387616594   -0.6170337687    2.2128327101
H       -0.7152525173   -0.8359902292    1.2749136065
H        0.0987956724    0.0059242228    2.1898657937
O        1.7174014622    0.9731286824    1.2212600691
H        1.4562126490    1.8058467411    0.8071394648
H        2.5774274678    1.1771283345    1.6098341533
9    
Iteration 33 Energy -228.74591965
O        0.8798318470   -1.5559470376   -0.0836838383
H        0.8824088867   -2.0501594632    0.7461349282
H        1.3199594284   -0.7365388154    0.1836505835
O       -0.6398447318   -0.6177211753    2.2133599229
H       -0.7138265332   -0.8385806796    1.2756799354
H        0.0970409113    0.0060502528    2.1908515011
O        1.7181362102    0.9722218684    1.2206519183
H        1.4581043409    1.8044114445    0.8048050829
H        2.5771096633    1.1764736202    1.6113699478
9    
Iteration 34 Energy -228.74592034
O        0.8800851044   -1.5535859226   -0.0836773451
H        0.8819610956   -2.0464037176    0.7469724090
H        1.3197597031   -0.7338124423    0.1832582224
O       -0.6413587018   -0.6197658228    2.2131679419
H       -0.7127011362   -0.8392054848    1.2749528037
H        0.0960999007    0.0034125491    2.1937282922
O        1.7186142758    0.9712153570    1.2218697887
H        1.4584111296    1.8012315413    0.8018759062
H        2.5780486518    1.1771239576    1.6106719624
9    
Iteration 35 Energy -228.74592040
O        0.8804138003   -1.5530010063   -0.0835134704
H        0.8813873700   -2.0457345598    0.7471974156
H        1.3202966714   -0.7334311990    0.1837352869
O       -0.6416286929   -0.6203961568    2.2129464277
H       -0.7129756217   -0.8386832182    1.2744644106
H        0.0962586862    0.0022973845    2.1943093450
O        1.7186215222    0.9711078040    1.2222091051
H        1.4581390619    1.8006512149    0.8014462373
H        2.5784072259    1.1773997515    1.6100252233
