18   
Iteration 0 Energy -449.79455426
O        0.8559100000   -1.3823600000    0.3174600000
H        1.6752400000   -1.8477400000    0.4858000000
H        1.1176100000   -0.4684300000    0.2057500000
O       -1.0986300000   -0.8583700000    2.1731900000
H       -0.4031000000   -1.1460800000    1.5818400000
H       -1.0851100000    0.0968300000    2.1128200000
O        1.8644800000    1.2201800000    1.3331100000
H        2.0104700000    1.8829200000    0.6580600000
H        2.6420500000    0.6632600000    1.2947900000
O        0.4360100000    0.8591100000   -1.7990100000
H        1.2952700000    0.5943600000   -1.4706600000
H        0.1355600000    0.1112200000   -2.3153700000
O       -0.8009300000   -2.0911300000   -1.5730000000
H       -0.2203200000   -1.8297700000   -0.8582800000
H       -0.3280600000   -1.8458100000   -2.3682600000
O       -1.4967600000    2.2679100000   -0.3295400000
H       -0.8467900000    1.6940800000   -0.7351300000
H       -2.3252600000    1.7984600000   -0.4267000000
18   
Iteration 1 Energy -449.81837923
O        0.8839990759   -1.3045761020    0.3842399560
H        1.6988609213   -1.8546983771    0.4989695727
H        1.2204823464   -0.3760983455    0.4099420877
O       -1.1524677834   -0.8702214395    2.2365662263
H       -0.4413111802   -1.1586561571    1.6090000926
H       -1.0706037323    0.1112793548    2.1174369891
O        1.8441015666    1.1315509572    1.2950178530
H        1.9882924838    1.8634041093    0.6383677385
H        2.7486045739    0.7214139920    1.2782843857
O        0.4194748326    0.9282873756   -1.7886569152
H        1.3306682288    0.6075910623   -1.5657821102
H        0.0920477475    0.1492221134   -2.3053302439
O       -0.8959021582   -2.1583623612   -1.6672030875
H       -0.3065579161   -1.9294193401   -0.8996582599
H       -0.3035902282   -1.9094975729   -2.4237634078
O       -1.4813879909    2.2959867556   -0.3108136042
H       -0.8396207351    1.7137734187   -0.7960662882
H       -2.3074500525    1.7576605563   -0.4236809849
18   
Iteration 2 Energy -449.82657087
O        0.8457090806   -1.2670022232    0.3639583048
H        1.6632918597   -1.8196207019    0.4699629191
H        1.1921559452   -0.3645716630    0.6004441261
O       -1.1634924592   -0.8697869565    2.2605210830
H       -0.4592796647   -1.1905631357    1.6314762328
H       -1.0768108806    0.1157988836    2.1329896875
O        1.8983041283    1.0153037296    1.1993235566
H        1.9265288136    1.8148400630    0.6032353617
H        2.8709625112    0.8154543718    1.2873285231
O        0.4277809176    0.9392353019   -1.8203628806
H        1.3499405372    0.6109182459   -1.6399418391
H        0.0475142617    0.1733200539   -2.3259328157
O       -0.8962258251   -2.1670353952   -1.6643296408
H       -0.3129185761   -1.9174676218   -0.8925997534
H       -0.2725814053   -1.9921277415   -2.4244520095
O       -1.4997045755    2.3039381846   -0.2821387094
H       -0.8136225777    1.7927881158   -0.7943749524
H       -2.2999120909    1.7252184879   -0.4182371942
18   
Iteration 3 Energy -449.82936349
O        0.8277276051   -1.1983652466    0.3389039091
H        1.5778754101   -1.8212984163    0.4953782059
H        1.1920149086   -0.3384506363    0.6953364544
O       -1.1731943501   -0.8888953870    2.2857171998
H       -0.5008478831   -1.2148416782    1.6330926427
H       -1.0802394133    0.0888100000    2.1490011265
O        1.9919979718    0.8975666421    1.1103487170
H        1.8399189357    1.7131483450    0.5739401475
H        2.9596193090    0.9561040320    1.2989046829
O        0.4147389868    0.9706070831   -1.8437903277
H        1.3214830180    0.5977630294   -1.7145235077
H       -0.0121643507    0.2214830811   -2.3240191846
O       -0.8752033833   -2.1495728481   -1.6481994665
H       -0.3071928395   -1.8458173363   -0.8921491978
H       -0.2206747526   -2.1098438981   -2.3937655706
O       -1.4837602182    2.2988222871   -0.2564416707
H       -0.7932547726    1.8483870680   -0.8059971917
H       -2.2512041816    1.6930338784   -0.4148669690
18   
Iteration 4 Energy -449.83144545
O        0.7752489178   -1.2589493906    0.3017660364
H        1.4677872263   -1.9086274028    0.5432925337
H        1.1951425045   -0.4143761918    0.6203264103
O       -1.1620754106   -0.9162637837    2.2833867188
H       -0.5199959800   -1.2174105087    1.5980223843
H       -1.0942992855    0.0597792140    2.1672424170
O        2.0622300065    0.9521437071    1.1062166383
H        1.8195002710    1.7466431914    0.5930478177
H        3.0068128145    1.0783046194    1.3261953651
O        0.3966190374    0.9839962628   -1.8667734568
H        1.2871925820    0.5854507796   -1.7461503219
H       -0.0704894254    0.2511305187   -2.3232321535
O       -0.8406970879   -2.1089146263   -1.6255279396
H       -0.2840672647   -1.7606928673   -0.8885508936
H       -0.1734093086   -2.1920193855   -2.3464597526
O       -1.4575056648    2.2852707728   -0.2389186303
H       -0.7673821222    1.8758256804   -0.8094091742
H       -2.2129718102    1.6773494096   -0.4076039998
18   
Iteration 5 Energy -449.83400150
O        0.8041929067   -1.2407305813    0.3450767749
H        1.4252098548   -1.9495389989    0.6137426127
H        1.3072196781   -0.4247120725    0.5842043343
O       -1.1535982080   -0.9332279863    2.2753173828
H       -0.5319108585   -1.2130319021    1.5625743559
H       -1.1139670025    0.0478951988    2.1855944543
O        2.0251599818    0.9657839262    1.0891438365
H        1.8204786995    1.7989144986    0.6193534872
H        2.9749882679    1.0720059102    1.3098323367
O        0.3752526144    0.9754131651   -1.8874964039
H        1.2670412158    0.5827254248   -1.7465466609
H       -0.1096043476    0.2433834109   -2.3302318915
O       -0.8396791637   -2.0788681728   -1.6598528286
H       -0.3037830181   -1.7355060675   -0.9056078914
H       -0.1424951576   -2.2231293813   -2.3409696456
O       -1.4354032683    2.2752984596   -0.2262634115
H       -0.7419827234    1.8788501420   -0.8036672430
H       -2.1994794714    1.6771150251   -0.3973335996
18   
Iteration 6 Energy -449.83664387
O        0.8106456845   -1.2532014110    0.3743427921
H        1.3854648060   -1.9831133268    0.6954861790
H        1.3291897588   -0.4366121842    0.5807098579
O       -1.1374522887   -0.9657099536    2.2648111239
H       -0.5245011561   -1.1618493985    1.5139563023
H       -1.1549568014    0.0213412778    2.2178548746
O        2.0316857223    0.9531170005    1.0425841688
H        1.7872741832    1.8195031749    0.6418328761
H        2.9738267395    1.1079882860    1.2890153730
O        0.3252111416    0.9785178298   -1.9237132998
H        1.2113772389    0.5713731089   -1.7711950947
H       -0.1688640351    0.2283453816   -2.3305762578
O       -0.8109003460   -2.0036858629   -1.6953267222
H       -0.2823825234   -1.6889152052   -0.9197685417
H       -0.0896040261   -2.2817498662   -2.3112340090
O       -1.3865164442    2.2651734247   -0.1978620526
H       -0.7125650572    1.8715890450   -0.8049998608
H       -2.1592925966    1.6765286779   -0.3790477098
18   
Iteration 7 Energy -449.84104778
O        0.8377102126   -1.2913430587    0.4492165616
H        1.1268115274   -2.0446038352    1.0196946793
H        1.4879550431   -0.5551236545    0.5931577225
O       -1.0784017840   -1.0777169346    2.2263005478
H       -0.5556302525   -0.9862136894    1.3807573536
H       -1.3348910572   -0.1259703928    2.3609823321
O        2.1418939698    0.9673819942    0.7898347675
H        1.5926738496    1.7999003234    0.7118281875
H        2.9528881710    1.3286865495    1.2431024438
O        0.0709453000    0.9419799351   -2.1305745142
H        0.9381516234    0.5094431404   -1.9121990377
H       -0.4820107630    0.1344830659   -2.3050332742
O       -0.4731618315   -1.6402702928   -1.9001065765
H       -0.0826912531   -1.4682472173   -0.9979618406
H       -0.0340611573   -2.5092338039   -2.1080318903
O       -1.1377277477    2.1948219781   -0.0582610093
H       -0.5774346759    1.8606162013   -0.8135663973
H       -1.9653791745    1.6800496889   -0.2622700572
18   
Iteration 8 Energy -449.84573817
O        0.8370931376   -1.2746007721    0.3984442743
H        1.2968371661   -2.0020503287    0.8804431589
H        1.3904372194   -0.4713358460    0.5813977839
O       -1.1363291376   -1.0225041662    2.2689044569
H       -0.5404790086   -1.0606875056    1.4744025747
H       -1.3040994220   -0.0461205403    2.3075630942
O        2.0882171221    0.9283814848    0.8661620407
H        1.6431857726    1.8014023030    0.7048113689
H        2.9617379274    1.2234714529    1.2307331492
O        0.1406775301    0.9664812649   -2.0670754278
H        1.0286501572    0.5792240435   -1.8625492094
H       -0.3322234521    0.1347897857   -2.3238118905
O       -0.6119417863   -1.7298293564   -1.7905395247
H       -0.1349976100   -1.6201384342   -0.9255502201
H       -0.0401679862   -2.4162519127   -2.2221616283
O       -1.1897070140    2.2068184875   -0.1170428355
H       -0.6367606342    1.8167179303   -0.8463401771
H       -2.0324899813    1.7048721076   -0.2709209896
18   
Iteration 9 Energy -449.85133941
O        0.8489199048   -1.3076126665    0.4278889744
H        1.3688165882   -1.9742244653    0.9328802279
H        1.3413876993   -0.4568193215    0.5649799672
O       -1.1716505455   -1.0136795546    2.2923951521
H       -0.5532827680   -1.0554628029    1.5190440098
H       -1.3598931639   -0.0427915433    2.3080976415
O        2.0974740391    0.9289322273    0.7969564049
H        1.5849158630    1.7719641730    0.7329191693
H        2.9456732412    1.2345678072    1.2005843070
O        0.0603960752    0.9072193132   -2.1406848296
H        0.9868471841    0.6530165376   -1.9091700204
H       -0.3179012970    0.0018021896   -2.2774737399
O       -0.5225304827   -1.6036453658   -1.8060749050
H       -0.0721017812   -1.6292908111   -0.9221115925
H       -0.0829756521   -2.3666277194   -2.2580399015
O       -1.0929242928    2.1659620239   -0.1017078740
H       -0.6451909868    1.7561746660   -0.8895431690
H       -1.9883396245    1.7491553102   -0.1840698233
18   
Iteration 10 Energy -449.84554993
O        0.8142611853   -1.3535418946    0.5185662721
H        1.4372526653   -1.9342364465    1.0010586400
H        1.2714367161   -0.4754037680    0.5794552902
O       -1.2316360922   -0.9894579721    2.3277768344
H       -0.5545493737   -1.1134085587    1.6213629966
H       -1.4206597141   -0.0262438782    2.2478302726
O        2.0766850461    0.9726208499    0.6562455824
H        1.4657752868    1.7266321229    0.7513650816
H        2.8795459341    1.2411384554    1.1465002223
O       -0.0510361458    0.8004867213   -2.2437565109
H        0.9178163933    0.8740581063   -2.0967764627
H       -0.1918545396   -0.1599854132   -2.0253100314
O       -0.3984225609   -1.4719965905   -1.8142181214
H        0.0202272632   -1.6139927234   -0.9274403993
H       -0.1651859468   -2.2660434639   -2.3386466364
O       -0.8947094784    2.0482068815   -0.1128387697
H       -0.6981065605    1.6298252978   -0.9908590982
H       -1.8492000779    1.8299822711   -0.0134451621
18   
Iteration 11 Energy -449.85379982
O        0.8189784291   -1.3302885459    0.4797658050
H        1.4040185083   -1.9548041887    0.9572030789
H        1.2993165247   -0.4679576775    0.5776967476
O       -1.2003897231   -0.9961747935    2.3085642048
H       -0.5477218565   -1.1041658124    1.5752825528
H       -1.3758623192   -0.0269514785    2.2630787979
O        2.0823041213    0.9517966414    0.7335350328
H        1.5305144644    1.7593921010    0.7388693360
H        2.9125993676    1.2290582699    1.1750022545
O        0.0177441265    0.8526999798   -2.1890472050
H        0.9807200643    0.7856793277   -1.9976641300
H       -0.2468150789   -0.1030224331   -2.1332123168
O       -0.4830154738   -1.5472933697   -1.8095497219
H       -0.0316181855   -1.6087947656   -0.9292957231
H       -0.1242271180   -2.3127728443   -2.3100046055
O       -1.0020206422    2.1110058205   -0.1083501149
H       -0.6718232908    1.6875414580   -0.9424594219
H       -1.9350619177    1.7936923082   -0.1025445712
18   
Iteration 12 Energy -449.85549716
O        0.7805584700   -1.3250932090    0.4974786602
H        1.3795195363   -1.9623512486    0.9387708031
H        1.2805384812   -0.4712319531    0.5788122949
O       -1.2048702357   -0.9891275616    2.3104409078
H       -0.5346023773   -1.1446952711    1.6013119433
H       -1.3608932501   -0.0199070773    2.2185774122
O        2.0606402368    0.9576547162    0.7134203991
H        1.4995895333    1.7560146932    0.7275401639
H        2.8831874948    1.2290879294    1.1687705874
O        0.0352683310    0.8989610798   -2.2191664683
H        1.0011817472    0.8562100679   -2.0400475612
H       -0.2489642192   -0.0534518950   -2.1462858003
O       -0.4827822083   -1.5909847149   -1.7445859174
H       -0.0097759033   -1.6752696127   -0.8795816605
H       -0.1196168912   -2.3112372412   -2.3009606109
O       -0.9686967574    2.0877771490   -0.1029046610
H       -0.6515012674    1.6727542329   -0.9467711127
H       -1.9111407203    1.8035299134   -0.0879493794
18   
Iteration 13 Energy -449.85742085
O        0.7809175803   -1.3314690237    0.5177693746
H        1.3813704646   -1.9741873762    0.9547370210
H        1.2985855363   -0.4850001811    0.5741903121
O       -1.2230357968   -0.9879260981    2.3251238892
H       -0.5370178403   -1.1506151854    1.6277906484
H       -1.3903652631   -0.0219801975    2.2003423373
O        2.0095794188    0.9511328942    0.6568245392
H        1.4250714340    1.7385136395    0.7255689750
H        2.8174699087    1.2312779203    1.1437147392
O       -0.0209094906    0.9093082147   -2.2648424955
H        0.9501646336    0.9107477587   -2.0953108561
H       -0.2385902163   -0.0595550745   -2.1657381358
O       -0.4307329512   -1.5549565321   -1.7176586627
H        0.0179456553   -1.6860733808   -0.8446333022
H       -0.0977938675   -2.3023693254   -2.2624082175
O       -0.8804354265    2.0501891170   -0.0777610714
H       -0.5958726175    1.6714305975   -0.9537620909
H       -1.8387111614    1.8101722302   -0.0570770035
18   
Iteration 14 Energy -449.86295017
O        0.7961671305   -1.3992746101    0.6386125229
H        1.4684924389   -2.0080287573    1.0200743640
H        1.2716553801   -0.5247975038    0.5869382894
O       -1.2842834513   -0.9696227525    2.3709766818
H       -0.5581351752   -1.1846376353    1.7227724889
H       -1.4595685623   -0.0235042683    2.1311245415
O        1.8795531077    0.9512292974    0.5006408511
H        1.1794281726    1.6364239052    0.6727847463
H        2.6112095302    1.2596451489    1.0963533003
O       -0.1211441248    0.9627641795   -2.3821175937
H        0.8604767843    1.0596230775   -2.3044436884
H       -0.2082487325   -0.0163727612   -2.1932724692
O       -0.3334019510   -1.5095636473   -1.6984803145
H        0.0527996969   -1.6213699889   -0.7907337927
H       -0.0341614909   -2.3276596856   -2.1617343596
O       -0.6152345530    1.9303014628   -0.0178830335
H       -0.4778635235    1.6670585726   -0.9736073089
H       -1.6001006756    1.8364259635    0.0688647756
18   
Iteration 15 Energy -449.83747635
O        0.8055040641   -1.4323953716    0.7915293982
H        1.5376258884   -2.0439712276    1.0458582559
H        1.2505170913   -0.5467651164    0.6571684794
O       -1.3558167828   -0.9440667254    2.4227477803
H       -0.5842194642   -1.2284942288    1.8556386897
H       -1.5203653463   -0.0492712061    2.0213851466
O        1.7007329021    0.9554749440    0.3234179420
H        0.8139989435    1.3975603651    0.4895438434
H        2.2563144233    1.2936493320    1.0808761251
O       -0.2103304323    1.0118814412   -2.4989203958
H        0.7545398061    1.2109696941   -2.6198132118
H       -0.1546371334    0.0448001860   -2.2394406307
O       -0.2073627394   -1.4321072194   -1.6361731169
H        0.1293077704   -1.5340140369   -0.7041187106
H        0.0415637725   -2.3038340830   -2.0350860009
O       -0.2591799958    1.7723098303    0.0197362486
H       -0.3581066380    1.6830444980   -0.9738785131
H       -1.2124461278    1.8638689214    0.2863986731
18   
Iteration 16 Energy -449.86580819
O        0.8011617814   -1.4059901222    0.7158324980
H        1.5069543237   -2.0234602089    1.0197510853
H        1.2629762222   -0.5245625403    0.6340141109
O       -1.3161187576   -0.9563194985    2.3963669977
H       -0.5695463353   -1.2106615510    1.7872376220
H       -1.4813305529   -0.0325839990    2.0727197293
O        1.7867882978    0.9332863940    0.4177975251
H        0.9782499112    1.4998686279    0.5697073539
H        2.4281579142    1.2813247870    1.0934248869
O       -0.1502345471    0.9839818078   -2.4264536723
H        0.8300727981    1.1225112899   -2.4634771331
H       -0.1843119723    0.0060514604   -2.2168034508
O       -0.2885826353   -1.4702945001   -1.6695583566
H        0.0847221781   -1.5643651639   -0.7521107831
H        0.0101757296   -2.3081012316   -2.1012999695
O       -0.4336607725    1.8615462780    0.0040957150
H       -0.4280225921    1.6631196910   -0.9761140557
H       -1.4098109899    1.8632884766    0.1817398989
18   
Iteration 17 Energy -449.86515879
O        0.8123581665   -1.3351623056    0.7363166880
H        1.5068387563   -2.0074749992    0.9327977654
H        1.2932842914   -0.4581296358    0.7176282091
O       -1.2942265747   -0.9525410323    2.3943286130
H       -0.5674657571   -1.2330468512    1.7887511653
H       -1.4284225263   -0.0379769578    2.0407518825
O        1.8094413960    0.8136260442    0.4859849528
H        0.9154557833    1.2373431163    0.3795193050
H        2.2945047957    1.3050717126    1.1858712659
O       -0.0468162923    0.9766670025   -2.3190479757
H        0.9161508134    1.0454689102   -2.5296649205
H       -0.1924233012    0.0019172838   -2.2069726812
O       -0.3780386981   -1.4691430681   -1.6742405650
H        0.0554987722   -1.4304244672   -0.7758115121
H        0.0612823114   -2.2545504838   -2.0847908607
O       -0.4503764700    1.9403143200   -0.0245361491
H       -0.4782559390    1.6414715872   -0.9678222194
H       -1.4011495260    1.9352098219    0.2078070386
18   
Iteration 18 Energy -449.87168103
O        0.7800161762   -1.3961330177    0.7189883619
H        1.4442481414   -2.0730285602    0.9668619430
H        1.3011698304   -0.5391566923    0.6970339606
O       -1.2748484440   -0.9644137601    2.3833168466
H       -0.5437130257   -1.2321799653    1.7730687162
H       -1.4463552476   -0.0469065615    2.0594552558
O        1.8405344783    0.9021633973    0.4579150724
H        0.9697783563    1.3690475178    0.3832969449
H        2.2873253340    1.3466790038    1.2037686249
O       -0.0913299401    0.9819585003   -2.3458861178
H        0.8720434556    1.0538541441   -2.5298148394
H       -0.2112954176    0.0055796508   -2.2022889450
O       -0.3378868474   -1.4694614945   -1.6372596554
H        0.0788869574   -1.4825978059   -0.7347545795
H        0.0489415953   -2.2551555049   -2.0835495146
O       -0.4574792274    1.9442658988   -0.0393534769
H       -0.4274425683    1.6668536227   -0.9930106292
H       -1.4049536053    1.9072716241    0.2090820333
18   
Iteration 19 Energy -449.87157979
O        0.8035639870   -1.4122322155    0.6878618041
H        1.5125615415   -2.0411210661    0.9384220937
H        1.2693204974   -0.5253486258    0.6181111434
O       -1.2750040001   -0.9539313474    2.3848136941
H       -0.5044211647   -1.2155502435    1.8138056040
H       -1.4652886790   -0.0429463880    2.0497725110
O        1.7172515537    0.8503076071    0.5050722607
H        0.9318773002    1.4606336399    0.4713975920
H        2.2661390321    1.2673368915    1.2054682914
O       -0.1244332904    0.9671678081   -2.3738691449
H        0.8356287994    1.0836223693   -2.5529590002
H       -0.1874546692   -0.0083869154   -2.1637774373
O       -0.3253614119   -1.4610065907   -1.5991556941
H        0.0593331098   -1.5793581830   -0.6911408705
H        0.0770963211   -2.1865267856   -2.1236187946
O       -0.3959472914    1.9525136060   -0.0833991471
H       -0.4409235422    1.6572996859   -1.0364927487
H       -1.3262980913    1.9061667507    0.2365578452
18   
Iteration 20 Energy -449.87483098
O        0.7978342794   -1.4113815944    0.6953321985
H        1.4905233637   -2.0608360468    0.9455695611
H        1.2783581621   -0.5305962157    0.6539900122
O       -1.2675066911   -0.9676882990    2.3919245341
H       -0.5091430796   -1.2161283690    1.8008151563
H       -1.4663666384   -0.0572997896    2.0596842376
O        1.7559539688    0.8601375983    0.5066373326
H        0.9128700737    1.3855198395    0.4006781404
H        2.2266878800    1.3019649981    1.2490533117
O       -0.1458281251    0.9721941710   -2.3847022978
H        0.8151382591    1.0727890807   -2.5781904210
H       -0.2225185539   -0.0005603482   -2.1673545141
O       -0.3173836390   -1.4616448954   -1.6120791831
H        0.0681551811   -1.5622854422   -0.7001516445
H        0.0847083209   -2.2075103378   -2.1090753430
O       -0.3736657855    2.0003355820   -0.0748020979
H       -0.3969131188    1.6897917274   -1.0246942138
H       -1.3032638557    1.9118383388    0.2342352326
18   
Iteration 21 Energy -449.87540266
O        0.7823866976   -1.4120324227    0.7045600297
H        1.4518942131   -2.0885585805    0.9430660027
H        1.2912994373   -0.5434805616    0.7194376545
O       -1.2348264058   -0.9947471540    2.3946733482
H       -0.4977269839   -1.2240509342    1.7735030347
H       -1.4552360206   -0.0839170622    2.0795786073
O        1.7679259035    0.8522422320    0.5480013605
H        0.9231908147    1.3532742051    0.3584499847
H        2.1596729129    1.3070503200    1.3224748406
O       -0.1634413694    0.9727523639   -2.3403060597
H        0.7885404866    1.0369282062   -2.5867883489
H       -0.2779817823   -0.0012676059   -2.1599311520
O       -0.3167212263   -1.4598467230   -1.6256049212
H        0.0838621370   -1.5191111136   -0.7150387583
H        0.1020243519   -2.2118417398   -2.1011504142
O       -0.3409486143    2.0849017790   -0.1584733110
H       -0.4108041785    1.7491758982   -1.0954063260
H       -1.2254703718    1.9011688904    0.2258244302
18   
Iteration 22 Energy -449.87692342
O        0.7787363800   -1.4196101108    0.7053158496
H        1.4548493684   -2.0903623767    0.9388825240
H        1.2755218967   -0.5406176457    0.7149474074
O       -1.2237906795   -1.0103475806    2.4116378224
H       -0.4892853536   -1.2516970954    1.7910670422
H       -1.4514872436   -0.1071753253    2.0801736950
O        1.7213182902    0.8280621416    0.5847445200
H        0.9148142855    1.3598870875    0.3158663449
H        2.0543832495    1.2863106278    1.3828701719
O       -0.2020188740    0.9617953838   -2.3821054037
H        0.7352441634    1.0368575403   -2.6719875528
H       -0.2877815530   -0.0089805944   -2.1717706652
O       -0.3175698870   -1.4664601932   -1.6105215754
H        0.0948225209   -1.5089092659   -0.7042130441
H        0.1260855387   -2.1945998617   -2.1002062732
O       -0.2826122661    2.1556092197   -0.1556024534
H       -0.3300902862    1.7856774645   -1.0836608050
H       -1.1434995486    1.9032005820    0.2414323975
18   
Iteration 23 Energy -449.87777093
O        0.7777261200   -1.4275512016    0.6909841141
H        1.4802560778   -2.0655773448    0.9424094878
H        1.2201663258   -0.5206679437    0.6949778219
O       -1.2324091260   -1.0225589547    2.4368622378
H       -0.4986429069   -1.2756499982    1.8165058727
H       -1.4616737954   -0.1233850776    2.0935870871
O        1.7329088261    0.8518927750    0.5992566902
H        0.9574082546    1.4323135158    0.3392828939
H        2.0638143020    1.2692300910    1.4239235084
O       -0.2296011339    0.9617667636   -2.4107206654
H        0.6987419143    1.0343443222   -2.7296893390
H       -0.2899903461    0.0005818485   -2.1404120262
O       -0.3056700833   -1.4591433673   -1.6072323915
H        0.0954325652   -1.5677610999   -0.7019328199
H        0.1243382508   -2.1741532723   -2.1263099954
O       -0.2597600482    2.1490496362   -0.1739155254
H       -0.3256948178    1.7570782669   -1.0941887751
H       -1.1197103773    1.8988310386    0.2334818261
18   
Iteration 24 Energy -449.87848993
O        0.7726751816   -1.4180014370    0.7057209267
H        1.4726342173   -2.0589846059    0.9547445528
H        1.2295564784   -0.5186408094    0.7110606210
O       -1.2240811155   -1.0450665018    2.4557651763
H       -0.5015211542   -1.2924454460    1.8210654301
H       -1.4639940201   -0.1512565104    2.1064809712
O        1.7238773547    0.8605126033    0.6272393985
H        0.9698287209    1.4536371151    0.3336804254
H        2.0227293479    1.2595995692    1.4736922110
O       -0.2487122511    0.9552373433   -2.4074096481
H        0.6633082968    1.0335574603   -2.7698645813
H       -0.2974782393   -0.0126502973   -2.1619187401
O       -0.3101110291   -1.4595444682   -1.6163799123
H        0.0873334742   -1.5515356279   -0.7072715426
H        0.1355904973   -2.1679405056   -2.1313505683
O       -0.2249870880    2.1621700160   -0.2031032162
H       -0.3068517044    1.7778398907   -1.1254694042
H       -1.0721569654    1.8921522090    0.2201879021
18   
Iteration 25 Energy -449.87891478
O        0.7546049824   -1.3994657542    0.7008875143
H        1.4442739636   -2.0445504315    0.9677076828
H        1.2291417275   -0.5089478785    0.7236213983
O       -1.2007670599   -1.0928276056    2.4896698913
H       -0.4961550501   -1.3170191028    1.8274179205
H       -1.4864234859   -0.2089701631    2.1486381635
O        1.7345041934    0.8604385850    0.6946519069
H        1.0086274093    1.4609983063    0.3430175707
H        1.9419572670    1.2503763926    1.5712063395
O       -0.2862379523    0.9541739744   -2.4276989930
H        0.5882081866    1.0110108179   -2.8756694188
H       -0.3362959083   -0.0109731372   -2.1732594700
O       -0.2999946065   -1.4608442159   -1.6294308653
H        0.0907341458   -1.5134217938   -0.7139424230
H        0.1611682337   -2.1744154827   -2.1241285549
O       -0.1666213811    2.2094443718   -0.2620190359
H       -0.2689954906    1.7969309948   -1.1707468167
H       -0.9840891725    1.9067021200    0.1969471913
18   
Iteration 26 Energy -449.87954370
O        0.7427579221   -1.3813610177    0.7084719550
H        1.4410874840   -2.0262112235    0.9521602336
H        1.2078208971   -0.4863708615    0.7577167752
O       -1.1900154550   -1.1251958233    2.5207675213
H       -0.4890655583   -1.3333095813    1.8498333179
H       -1.5138260779   -0.2556265837    2.1766949653
O        1.7408325529    0.8692231026    0.7329785757
H        1.0431143228    1.4765469929    0.3400832263
H        1.8860881770    1.2448850629    1.6273039782
O       -0.3055252294    0.9444375271   -2.4381038400
H        0.5225329633    1.0144878218   -2.9645999408
H       -0.3290349575   -0.0230477377   -2.1902721287
O       -0.3072674334   -1.4618478588   -1.6329016116
H        0.0897748888   -1.5032497072   -0.7200855062
H        0.1766438830   -2.1592019740   -2.1286487332
O       -0.1167695456    2.2046938092   -0.2858115588
H       -0.2257430465    1.7846206567   -1.1902174691
H       -0.9457657850    1.9351673928    0.1715002413
18   
Iteration 27 Energy -449.88014219
O        0.7319976003   -1.3342925587    0.7003546899
H        1.4183047296   -1.9903940972    0.9489523685
H        1.2052884473   -0.4438496628    0.7617881854
O       -1.1684034914   -1.2084395626    2.6012848904
H       -0.4899728284   -1.3424810515    1.8885887511
H       -1.6096367992   -0.3858975115    2.2733832192
O        1.7693970804    0.9011292096    0.8317063237
H        1.1044636850    1.4928692191    0.3642260919
H        1.7665969969    1.2462041314    1.7521489244
O       -0.3619825953    0.9349624047   -2.4892358406
H        0.3464163575    1.0084441533   -3.1669273183
H       -0.3504663711   -0.0337508594   -2.2433414212
O       -0.2844122657   -1.4565749701   -1.6486765470
H        0.0870611351   -1.4728416587   -0.7243449248
H        0.2268960015   -2.1566840345   -2.1121740025
O        0.0157598038    2.1742674204   -0.3305074515
H       -0.1307385183    1.7644268001   -1.2343961276
H       -0.8489289648    2.0215426254    0.1140401902
18   
Iteration 28 Energy -449.88018654
O        0.7213301018   -1.3003256105    0.6904940123
H        1.3980004097   -1.9716651812    0.9226335174
H        1.2044019608   -0.4198056288    0.7990552029
O       -1.1350738397   -1.2643370854    2.6408043302
H       -0.4849114197   -1.3334396465    1.8941398434
H       -1.6566047656   -0.4779390933    2.3470928222
O        1.7958361186    0.9080455435    0.9208402636
H        1.1901318176    1.5210388532    0.4069932651
H        1.7416024771    1.2492027373    1.8421647201
O       -0.3826155219    0.9115210952   -2.5145530680
H        0.2620728189    0.9820103134   -3.2524829219
H       -0.3698123824   -0.0574964499   -2.2737872708
O       -0.2955337323   -1.4731754598   -1.6691399025
H        0.0727240746   -1.4749345123   -0.7428124493
H        0.2535813293   -2.1461136207   -2.1286358312
O        0.0438583976    2.2024217812   -0.3708280524
H       -0.0829013345    1.7541046445   -1.2572820221
H       -0.8484465068    2.1095273165    0.0321735422
18   
Iteration 29 Energy -449.88072318
O        0.7205312768   -1.3230667299    0.7012662265
H        1.4083114875   -1.9883294941    0.9193984326
H        1.1982496186   -0.4383435716    0.7988549374
O       -1.1405869246   -1.2398070697    2.6171966375
H       -0.4682874170   -1.3279187522    1.8915593738
H       -1.6466705434   -0.4484718291    2.3076444854
O        1.7708983611    0.8900932351    0.8773329866
H        1.1235280922    1.4798236151    0.3890134200
H        1.7619185622    1.2527334210    1.7911226713
O       -0.3741308601    0.9288180174   -2.4944247030
H        0.3081342086    0.9932617077   -3.1995287902