8    
Iteration 0 Energy -79.22343515
C       -4.1349812400    0.7034220400    0.0000000000
H       -3.5365096600   -0.1651672000   -0.1796788600
H       -4.0717208400    1.3605701700   -0.8420537100
H       -5.1533858500    0.4104645800    0.1480810000
C       -3.6216390200    1.4293783200    1.2574049700
H       -3.6830679400    2.4871961500    1.1085831800
H       -4.2213341300    1.1521931600    2.0990902800
H       -2.6038422700    1.1531436000    1.4381925800
8    
Iteration 1 Energy -79.22559813
C       -4.1372708554    0.7001836203   -0.0055893921
H       -3.5633760976   -0.1977601959   -0.2090126900
H       -4.0713856283    1.3321804354   -0.8849536340
H       -5.1751578612    0.4031391643    0.1020906188
C       -3.6193488488    1.4326163324    1.2629943481
H       -3.6834237837    2.5101950444    1.1545584654
H       -4.1944806237    1.1613248377    2.1420089467
H       -2.5820373360    1.1893216660    1.4675227771
8    
Iteration 2 Energy -79.22597117
C       -4.1346044951    0.7039584846    0.0009697634
H       -3.5696542968   -0.2034380043   -0.1932866808
H       -4.0538295418    1.3317214118   -0.8820133287
H       -5.1784133574    0.4206188765    0.1032077732
C       -3.6220192268    1.4288433678    1.2564370168
H       -3.7009811521    2.5074644680    1.1534181601
H       -4.1882256366    1.1449218925    2.1390863550
H       -2.5787532579    1.1971104162    1.4518004597
8    
Iteration 3 Energy -79.22652420
C       -4.1316595194    0.7081310551    0.0082763766
H       -3.5984306477   -0.2235979353   -0.1603513359
H       -4.0079613918    1.3173774974   -0.8830168776
H       -5.1878314133    0.4659663355    0.0904383163
C       -3.6249717064    1.4246785947    1.2491261886
H       -3.7468791330    2.5013150033    1.1661472106
H       -4.1594875858    1.1064233206    2.1401323733
H       -2.5692595105    1.2309070576    1.4188674982
8    
Iteration 4 Energy -79.22752169
C       -4.1258430830    0.7163769181    0.0227848247
H       -3.7199088483   -0.2899805112   -0.0509171278
H       -3.8472369871    1.2453632124   -0.8857790779
H       -5.2099372205    0.6287503618    0.0270213080
C       -3.6307855070    1.4164249234    1.2346220075
H       -3.9077977881    2.4681826136    1.2294450249
H       -4.0381474587    0.9786777203    2.1431288063
H       -2.5468237246    1.3674057395    1.3093146148
8    
Iteration 5 Energy -79.22826315
C       -4.1285836407    0.7124924998    0.0160698072
H       -3.7265504178   -0.2948292219   -0.0515593139
H       -3.8432902583    1.2396261299   -0.8903698093
H       -5.2122958561    0.6321105556    0.0198499301
C       -3.6280470783    1.4203169181    1.2413368593
H       -3.9117309734    2.4693196907    1.2365843048
H       -4.0315186520    0.9768879465    2.1476901675
H       -2.5444636165    1.3752763897    1.3100185744
8    
Iteration 6 Energy -79.22887635
C       -4.1323397302    0.7071393452    0.0069996520
H       -3.8015286636   -0.3268432915   -0.0093099408
H       -3.7688730536    1.1862983259   -0.8969509564
H       -5.2174647054    0.7092087048   -0.0294122561
C       -3.6242909823    1.4256417411    1.2504192550
H       -3.9861984001    2.4486777315    1.2857111440
H       -3.9566524335    0.9244917525    2.1544128383
H       -2.5391322298    1.4565863620    1.2677512615
8    
Iteration 7 Energy -79.22890507
C       -4.1332207470    0.7058820558    0.0047764664
H       -3.7839940689   -0.3216220111   -0.0249816721
H       -3.7899156565    1.1974768746   -0.9002581828
H       -5.2183677499    0.6865371902   -0.0214566773
C       -3.6233983395    1.4269075096    1.2526315223
H       -3.9651383409    2.4570474683    1.2777712773
H       -3.9741884357    0.9406405338    2.1576741338
H       -2.5382569988    1.4383309589    1.2834639421
8    
Iteration 8 Energy -79.22890733
C       -4.1330197384    0.7061574820    0.0052559292
H       -3.7872497613   -0.3226556520   -0.0218987782
H       -3.7858519995    1.1954243889   -0.8996476590
H       -5.2182514148    0.6908787244   -0.0229080677
C       -3.6236006206    1.4266393591    1.2521504809
H       -3.9692323006    2.4555017417    1.2792114940
H       -3.9709054124    0.9374785747    2.1570580414
H       -2.5383690795    1.4417759635    1.2803993212
8    
Iteration 9 Energy -79.22890704
C       -4.1330080135    0.7061746088    0.0052601670
H       -3.7873212567   -0.3226679312   -0.0218649245
H       -3.7857459861    1.1953980702   -0.8996282416
H       -5.2182399083    0.6909837843   -0.0229577988
C       -3.6236115820    1.4266245476    1.2521456530
H       -3.9693020698    2.4554664358    1.2792681359
H       -3.9708723030    0.9374008823    2.1570347367
H       -2.5383792073    1.4418200981    1.2803630348
