3    
Iteration 35 Energy -92.35406001
C        0.0300334543   -0.0046767328   -0.0001083271
N       -1.0887362263    0.1980320978    0.0111881303
H        1.0637762285   -0.1919796188   -0.0105462483
3    
Iteration 34 Energy -92.35406001
C        0.0300334527   -0.0046767328   -0.0001083266
N       -1.0887362275    0.1980320981    0.0111881301
H        1.0637762313   -0.1919796191   -0.0105462485
3    
Iteration 33 Energy -92.35388891
C        0.0265824787   -0.0249505411    0.0000228346
N       -1.0864082149    0.2076473051    0.0111183668
H        1.0648991927   -0.1813210178   -0.0106076465
3    
Iteration 32 Energy -92.35333262
C        0.0226900791   -0.0464978502    0.0001646907
N       -1.0833086338    0.2177700326    0.0110378296
H        1.0656920111   -0.1698964362   -0.0106689654
3    
Iteration 31 Energy -92.35239959
C        0.0189216160   -0.0680166228    0.0003050604
N       -1.0792545023    0.2276996010    0.0109477471
H        1.0654063428   -0.1583072320   -0.0107192527
3    
Iteration 30 Energy -92.35110327
C        0.0151832814   -0.0894740727    0.0004448181
N       -1.0743491369    0.2374447711    0.0108492087
H        1.0642393120   -0.1465949522   -0.0107604719
3    
Iteration 29 Energy -92.34945933
C        0.0115096953   -0.1108511434    0.0005834976
N       -1.0685830716    0.2469942247    0.0107421628
H        1.0621468329   -0.1347673351   -0.0107921054
3    
Iteration 28 Energy -92.34748358
C        0.0078838921   -0.1321267079    0.0007211868
N       -1.0619876206    0.2563444931    0.0106269678
H        1.0591771850   -0.1228420390   -0.0108145997
3    
Iteration 27 Energy -92.34519078
C        0.0043105882   -0.1532815924    0.0008577460
N       -1.0545783790    0.2654897071    0.0105038213
H        1.0553412473   -0.1108323685   -0.0108280124
3    
Iteration 26 Energy -92.34259400
C        0.0007814539   -0.1742993857    0.0009931904
N       -1.0463839605    0.2744274794    0.0103730471
H        1.0506759631   -0.0987523476   -0.0108326826
3    
Iteration 25 Energy -92.33970486
C       -0.0027053682   -0.1951649404    0.0011274707
N       -1.0374281655    0.2831550705    0.0102349179
H        1.0452069902   -0.0866143838   -0.0108288338
3    
Iteration 24 Energy -92.33653396
C       -0.0061564257   -0.2158654103    0.0012605992
N       -1.0277396388    0.2916713664    0.0100897522
H        1.0389695210   -0.0744302099   -0.0108167965
3    
Iteration 23 Energy -92.33309154
C       -0.0095758150   -0.2363890842    0.0013925667
N       -1.0173439110    0.2999751500    0.0099378345
H        1.0319931825   -0.0622103196   -0.0107968463
3    
Iteration 22 Energy -92.32938825
C       -0.0129698817   -0.2567265026    0.0015233990
N       -1.0062692646    0.3080664340    0.0097794741
H        1.0243126027   -0.0499641852   -0.0107693182
3    
Iteration 21 Energy -92.32543576
C       -0.0163462191   -0.2768689577    0.0016531390
N       -0.9945416943    0.3159448044    0.0096149569
H        1.0159613699   -0.0377001005   -0.0107345410
3    
Iteration 20 Energy -92.32124754
C       -0.0197122710   -0.2968085542    0.0017818316
N       -0.9821854100    0.3236096443    0.0094445506
H        1.0069711376   -0.0254253439   -0.0106928273
3    
Iteration 19 Energy -92.31683951
C       -0.0230794967   -0.3165391231    0.0019095737
N       -0.9692262679    0.3310606457    0.0092685392
H        0.9973792211   -0.0131457764   -0.0106445580
3    
Iteration 18 Energy -92.31223083
C       -0.0264600286   -0.3360540332    0.0020364674
N       -0.9556859720    0.3382959617    0.0090871685
H        0.9872194571   -0.0008661824   -0.0105900810
3    
Iteration 17 Energy -92.30744464
C       -0.0298675529   -0.3553469304    0.0021626330
N       -0.9415846648    0.3453128404    0.0089006714
H        0.9765256742    0.0114098362   -0.0105297495
3    
Iteration 16 Energy -92.30250892
C       -0.0333195263   -0.3744118628    0.0022882339
N       -0.9269417609    0.3521073087    0.0087092784
H        0.9653347437    0.0236803003   -0.0104639574
3    
Iteration 15 Energy -92.29745725
C       -0.0368317887   -0.3932414025    0.0024134091
N       -0.9117720427    0.3586734006    0.0085131787
H        0.9536772879    0.0359437481   -0.0103930329
3    
Iteration 14 Energy -92.29232959
C       -0.0404253159   -0.4118287622    0.0025383566
N       -0.8960909973    0.3650037054    0.0083125756
H        0.9415897697    0.0482008030   -0.0103173773
3    
Iteration 13 Energy -92.28717277
C       -0.0441126545   -0.4301639173    0.0026631673
N       -0.8799072147    0.3710890402    0.0081076055
H        0.9290933256    0.0604506232   -0.0102372179
3    
Iteration 12 Energy -92.28204079
C       -0.0479212694   -0.4482404051    0.0027881117
N       -0.8632363072    0.3769186213    0.0078984887
H        0.9162310332    0.0726975299   -0.0101530456
3    
Iteration 11 Energy -92.27699462
C       -0.0518678681   -0.4660477124    0.0029133241
N       -0.8460867888    0.3824800682    0.0076853754
H        0.9030281135    0.0849433904   -0.0100651446
3    
Iteration 10 Energy -92.27210136
C       -0.0559720469   -0.4835757981    0.0030389723
N       -0.8284688178    0.3877596721    0.0074684396
H        0.8895143212    0.0971918722   -0.0099738571
3    
Iteration 9 Energy -92.26743275
C       -0.0602544331   -0.5008149944    0.0031652374
N       -0.8103940357    0.3927426866    0.0072478768
H        0.8757219253    0.1094480540   -0.0098795594
3    
Iteration 8 Energy -92.26306302
C       -0.0647382923   -0.5177566074    0.0032923336
N       -0.7918765693    0.3974131013    0.0070239152
H        0.8616883181    0.1217192523   -0.0097826939
3    
Iteration 7 Energy -92.25906593
C       -0.0694425811   -0.5343908493    0.0034204230
N       -0.7729293350    0.4017542811    0.0067967725
H        0.8474453726    0.1340123144   -0.0096836406
3    
Iteration 6 Energy -92.25551169
C       -0.0744174349   -0.5507207959    0.0035500679
N       -0.7535866747    0.4057461797    0.0065669166
H        0.8330775661    0.1463503624   -0.0095834296
3    
Iteration 5 Energy -92.25246256
C       -0.0795984204   -0.5667008905    0.0036803540
N       -0.7338150130    0.4093771264    0.0063340342
H        0.8184868899    0.1586995103   -0.0094808333
3    
Iteration 4 Energy -92.24997101
C       -0.0854273170   -0.5825123788    0.0038169461
N       -0.7138889898    0.4125825931    0.0061014253
H        0.8043897633    0.1713055319   -0.0093848165
3    
Iteration 3 Energy -92.24807219
C       -0.0904580251   -0.5974607188    0.0039408343
N       -0.6929719024    0.4155209424    0.0058592128
H        0.7885033840    0.1833155226   -0.0092664922
3    
Iteration 2 Energy -92.24679509
C       -0.0992402829   -0.6135771086    0.0041111185
N       -0.6741084375    0.4174965717    0.0056438878
H        0.7784221768    0.1974562831   -0.0092214514
3    
Iteration 1 Energy -92.24615205
C       -0.1012394346   -0.6247141668    0.0041843002
N       -0.6526850981    0.4198640843    0.0053987716
H        0.7589979892    0.2062258287   -0.0090495169
3    
Iteration 0 Energy -92.24601961
C       -0.1088783634   -0.6365101639    0.0043221742
N       -0.6393457902    0.4205365638    0.0052498438
H        0.7532976101    0.2173493463   -0.0090384631
3    
Iteration 1 Energy -92.24630037
C       -0.1162988464   -0.6510180565    0.0044701582
N       -0.6186388781    0.4219458640    0.0050169758
H        0.7400111810    0.2304479387   -0.0089535791
3    
Iteration 2 Energy -92.24712491
C       -0.1245667587   -0.6646420574    0.0046233329
N       -0.5972083273    0.4221457080    0.0047817707
H        0.7268485425    0.2438720956   -0.0088715488
3    
Iteration 3 Energy -92.24844201
C       -0.1336837459   -0.6787084619    0.0047878288
N       -0.5762864310    0.4221157496    0.0045531855
H        0.7150436334    0.2579684585   -0.0088074594
3    
Iteration 4 Energy -92.25018818
C       -0.1437149990   -0.6925660358    0.0049613573
N       -0.5555687116    0.4213109755    0.0043304032
H        0.7043571671    0.2726308065   -0.0087582056
3    
Iteration 5 Energy -92.25229802
C       -0.1547642294   -0.7063338789    0.0051456010
N       -0.5352982914    0.4197184518    0.0041161413
H        0.6951359772    0.2879911733   -0.0087281874
3    
Iteration 6 Energy -92.25471086
C       -0.1669167451   -0.7200474548    0.0053416560
N       -0.5156839897    0.4172668745    0.0039130113
H        0.6876741912    0.3041563266   -0.0087211125
3    
Iteration 7 Energy -92.25737744
C       -0.1801894438   -0.7337067453    0.0055497070
N       -0.4969101231    0.4139021503    0.0037232776
H        0.6821730234    0.3211803413   -0.0087394296
3    
Iteration 8 Energy -92.26026265
C       -0.1945039155   -0.7472710540    0.0057687091
N       -0.4790837351    0.4096102853    0.0035481747
H        0.6786611071    0.3390365149   -0.0087833289
3    
Iteration 9 Energy -92.26334292
C       -0.2096904806   -0.7606644702    0.0059964576
N       -0.4621868414    0.4044277761    0.0033873379
H        0.6769507785    0.3576124403   -0.0088502406
3    
Iteration 10 Energy -92.26660007
C       -0.2255353598   -0.7737971575    0.0062302013
N       -0.4460861580    0.3984286352    0.0032389691
H        0.6766949743    0.3767442685   -0.0089356155
3    
Iteration 11 Energy -92.27001535
C       -0.2418346535   -0.7865830095    0.0064673144
N       -0.4305907648    0.3916966385    0.0031005949
H        0.6774988748    0.3962621172   -0.0090343544
3    
Iteration 12 Energy -92.27356592
C       -0.2584232780   -0.7989507348    0.0067056635
N       -0.4155144861    0.3843069466    0.0029698336
H        0.6790112206    0.4160195344   -0.0091419422
3    
Iteration 13 Energy -92.27722420
C       -0.2751767392   -0.8108435112    0.0069436258
N       -0.4007014601    0.3763196331    0.0028447045
H        0.6809516557    0.4358996242   -0.0092547754
3    
Iteration 14 Energy -92.28095833
C       -0.2920014110   -0.8222143921    0.0071799614
N       -0.3860340798    0.3677806394    0.0027237101
H        0.6831089473    0.4558094989   -0.0093701165
3    
Iteration 15 Energy -92.28473399
C       -0.3088259450   -0.8330253010    0.0074137147
N       -0.3714272066    0.3587258517    0.0026057542
H        0.6853266081    0.4756751955   -0.0094859141
3    
Iteration 16 Energy -92.28851627
C       -0.3255935885   -0.8432447802    0.0076441205
N       -0.3568208246    0.3491848124    0.0024900447
H        0.6874878696    0.4954357140   -0.0096006103
3    
Iteration 17 Energy -92.29227142
C       -0.3422558535   -0.8528450877    0.0078705207
N       -0.3421702483    0.3391841301    0.0023759704
H        0.6894995583    0.5150367038   -0.0097129362
3    
Iteration 18 Energy -92.29596733
C       -0.3588675475   -0.8619225270    0.0080939583
N       -0.3276501978    0.3287051831    0.0022655272
H        0.6915912018    0.5345930901   -0.0098259306
3    
Iteration 19 Energy -92.29957315
C       -0.3753702138   -0.8704738832    0.0083137795
N       -0.3131812393    0.3178229568    0.0021575011
H        0.6936249096    0.5540266726   -0.0099377256
3    
Iteration 20 Energy -92.30306147
C       -0.3916947935   -0.8784799632    0.0085291408
N       -0.2986683607    0.3066239047    0.0020504549
H        0.6954366107    0.5732318047   -0.0100460408
3    
Iteration 21 Energy -92.30641047
C       -0.4077716292   -0.8858723912    0.0087389657
N       -0.2840578330    0.2951415999    0.0019436467
H        0.6969029187    0.5921065375   -0.0101490574
3    
Iteration 22 Energy -92.30960590
C       -0.4235255448   -0.8925863418    0.0089421334
N       -0.2692821190    0.2834316336    0.0018360817
H        0.6978811203    0.6105304544   -0.0102446603
3    
Iteration 23 Energy -92.31264242
C       -0.4388914476   -0.8985426851    0.0091375678
N       -0.2542895785    0.2715194178    0.0017270785
H        0.6982544826    0.6283990135   -0.0103310914
3    
Iteration 24 Energy -92.31552266
C       -0.4538215405   -0.9036740073    0.0093244356
N       -0.2390201108    0.2594244316    0.0016158902
H        0.6979151078    0.6456253219   -0.0104067709
3    
Iteration 25 Energy -92.31825347
C       -0.4682973943   -0.9079303259    0.0095023050
N       -0.2234326209    0.2471357618    0.0015021178
H        0.6968034718    0.6621703102   -0.0104708678
3    
Iteration 26 Energy -92.32083966
C       -0.4823356154   -0.9113151879    0.0096713738
N       -0.2075196478    0.2346369002    0.0013857558
H        0.6949287197    0.6780540339   -0.0105235747
3    
Iteration 27 Energy -92.32327978
C       -0.4959901110   -0.9139066426    0.0098325911
N       -0.1913415579    0.2219087711    0.0012675521
H        0.6924051253    0.6933736177   -0.0105665883
3    
Iteration 28 Energy -92.32556764
C       -0.5093337342   -0.9158532004    0.0099874379
N       -0.1749802521    0.2089763154    0.0011482871
H        0.6893874428    0.7082526312   -0.0106021701
3    
Iteration 29 Energy -92.32769718
C       -0.5224215965   -0.9172911706    0.0101371447
N       -0.1585039263    0.1958853872    0.0010284950
H        0.6859989793    0.7227815296   -0.0106320848
3    
Iteration 30 Energy -92.32966417
C       -0.5352623570   -0.9182856842    0.0102821064
N       -0.1419185216    0.1827077578    0.0009079100
H        0.6822543351    0.7369536726   -0.0106564615
3    
Iteration 31 Energy -92.33146535
C       -0.5478198857   -0.9188083759    0.0104217972
N       -0.1252262137    0.1694737876    0.0007864160
H        0.6781195559    0.7507103345   -0.0106746583
3    
Iteration 32 Energy -92.33309726
C       -0.5600306347   -0.9187992206    0.0105552460
N       -0.1083766600    0.1562625982    0.0006630979
H        0.6734807512    0.7639123686   -0.0106847890
3    
Iteration 33 Energy -92.33455659
C       -0.5718203088   -0.9181461274    0.0106811237
N       -0.0914452257    0.1430053282    0.0005390971
H        0.6683389911    0.7765165453   -0.0106866659
3    
Iteration 34 Energy -92.33583902
C       -0.5831364316   -0.9168684168    0.0107989459
N       -0.0742373064    0.1300153204    0.0004108419
H        0.6624471945    0.7882288426   -0.0106762329
3    
Iteration 35 Energy -92.33694154
C       -0.5938900895   -0.9146613015    0.0109063357
N       -0.0574752844    0.1163573037    0.0002905401
H        0.6564388304    0.7996797440   -0.0106633209
3    
Iteration 36 Energy -92.33781402
C       -0.6040851880   -0.9125749192    0.0110081757
N       -0.0390551105    0.1058399906    0.0001376365
H        0.6482137549    0.8081106748   -0.0106122573
3    
Iteration 37 Energy -92.33842946
C       -0.6122944019   -0.9076719650    0.0110753250
N       -0.0266141499    0.0890530135    0.0000789937
H        0.6439820083    0.8199946977   -0.0106207638
3    
Iteration 38 Energy -92.33896680
C       -0.6196354048   -0.9058645534    0.0111472490
N       -0.0115442727    0.0831744111   -0.0000586616
H        0.6362531340    0.8240658885   -0.0105550325
3    
Iteration 39 Energy -92.33939535
C       -0.6289988624   -0.9016525329    0.0112302010
N        0.0054384511    0.0694120946   -0.0001808956
H        0.6286338677    0.8336161844   -0.0105157505
3    
Iteration 40 Energy -92.33960172
C       -0.6358509941   -0.8978004176    0.0112873572
N        0.0195708505    0.0598816311   -0.0002914721
H        0.6213536001    0.8392945327   -0.0104623302
3    
Iteration 41 Energy -92.33968444
C       -0.6420701025   -0.8934939732    0.0113354992
N        0.0328094040    0.0500723367   -0.0003909919
H        0.6143341549    0.8447973828   -0.0104109525
3    
Iteration 42 Energy -92.33968926
C       -0.6433705125   -0.8922884703    0.0113441599
N        0.0360433483    0.0480010474   -0.0004168004
H        0.6124006207    0.8456631691   -0.0103938047
3    
Iteration 43 Energy -92.33968948
C       -0.6433403308   -0.8922466887    0.0113436328
N        0.0360490631    0.0480089560   -0.0004168991
H        0.6123647242    0.8456134789   -0.0103931789
