24   
Iteration 0 Energy -0.00456386
C        1.0000000000    1.0000000000    0.0000000000
C       -0.5150000000    1.0000000000    0.0000000000
C       -1.2590000000    1.0000000000    1.1240000000
C       -0.6720000000    1.0800000000    2.5180000000
C        0.7800000000    1.5020000000    2.4250000000
H        0.8290000000    2.5700000000    2.1600000000
C        1.4960000000    0.6460000000    1.3880000000
H        1.3090000000   -0.4230000000    1.5730000000
C        2.9370000000    0.8810000000    1.7380000000
O        3.8810000000    0.7520000000    0.9760000000
N        2.9490000000    1.1300000000    3.0990000000
C        1.6800000000    1.3310000000    3.6160000000
O        1.3450000000    1.4290000000    4.7840000000
S        4.3590000000    1.1820000000    4.0240000000
C        4.5140000000   -0.5220000000    4.6690000000
Cl       3.2740000000   -1.6680000000    4.0780000000
Cl       6.1240000000   -1.1640000000    4.1980000000
Cl       4.4360000000   -0.4750000000    6.4590000000
H        1.3660000000    1.9820000000   -0.3200000000
H        1.3680000000    0.2640000000   -0.7240000000
H       -1.0060000000    0.9990000000   -0.9710000000
H       -2.3440000000    0.9410000000    1.0470000000
H       -0.7780000000    0.1090000000    3.0150000000
H       -1.2330000000    1.8110000000    3.1120000000
24   
Iteration 1 Energy -0.01171997
C        0.9888058839    1.0385939625   -0.0315483036
C       -0.5426937162    1.0195523351   -0.0184513803
C       -1.2912647081    1.0004434117    1.1103434719
C       -0.7056558661    1.0571908527    2.5246460098
C        0.7538986547    1.5061083800    2.4256131974
H        0.7926944392    2.5604499149    2.1445791014
C        1.4855758100    0.6557414850    1.3641325912
H        1.2807891176   -0.4020846984    1.5427677495
C        2.9503327467    0.8138789697    1.7457296480
O        3.9528519342    0.6542675852    1.0621542660
N        2.9241339258    1.1377232414    3.0838419803
C        1.6859053579    1.4064622557    3.6220249776
O        1.3941568930    1.5511499639    4.8012753389
S        4.3408584837    1.1139418413    4.0455871251
C        4.5715644736   -0.5742354208    4.6987290468
Cl       3.3855572710   -1.7487044899    4.0596963951
Cl       6.2161058280   -1.0987875123    4.2519057770
Cl       4.4300597691   -0.4922741068    6.4737378617
H        1.3597055720    2.0160878317   -0.3458909082
H        1.3550841327    0.3075813056   -0.7549585113
H       -1.0504126788    0.9578850328   -0.9726334948
H       -2.3695326657    1.0030595593    1.0130063233
H       -0.8044466311    0.0903549230    3.0223536304
H       -1.2640740273    1.7826133766    3.1193581067
24   
Iteration 2 Energy -0.01191119
C        0.9835968449    1.0866494101   -0.0505073467
C       -0.5554950475    1.0254908474   -0.0189279631
C       -1.2889006234    0.9631071042    1.1243033032
C       -0.6904848144    1.0032994134    2.5435848843
C        0.7550328439    1.5069164218    2.4199652469
H        0.7567526574    2.5542097267    2.1292710518
C        1.4880156265    0.6762296990    1.3401020089
H        1.2827506797   -0.3785921609    1.5076143280
C        2.9526224693    0.8091439274    1.7568393697
O        3.8757047224    0.5740488984    0.9831287177
N        2.9838790371    1.1811237850    3.0803685100
C        1.7387653567    1.4634601827    3.5909875527
O        1.4612056297    1.6436736850    4.7726606760
S        4.4078436289    1.0847036877    4.0634414319
C        4.5625542501   -0.5954561798    4.7381171832
Cl       3.3412904180   -1.6858480411    4.0280718009
Cl       6.1986691299   -1.1675174745    4.3524326488
Cl       4.3359635685   -0.4798950103    6.4966965684
H        1.3378958026    2.0754321737   -0.3400534681
H        1.3616859540    0.3815867841   -0.7900329055
H       -1.0808270917    0.9405888362   -0.9588058396
H       -2.3644487888    0.9674725356    1.0311296258
H       -0.7448516103    0.0286620607    3.0277818582
H       -1.2592206436    1.6985096876    3.1598307567
24   
Iteration 3 Energy -0.01397864
C        0.9813141328    1.0879894775   -0.0405623614
C       -0.5520472129    1.0177387120    0.0012913456
C       -1.2779629630    0.9450749091    1.1461368367
C       -0.6637165554    0.9893809680    2.5532060521
C        0.7718330389    1.5067589876    2.4195000467
H        0.7580325535    2.5562732685    2.1274439833
C        1.5004293875    0.6755591856    1.3394747015
H        1.2996629644   -0.3831480146    1.5028506833
C        2.9673448579    0.8205637574    1.7248283791
O        3.9331729632    0.5935769438    1.0028459878
N        2.9854274464    1.1945351695    3.0489618222
C        1.7488665717    1.4653561053    3.5873478943
O        1.4769681005    1.6516173588    4.7692921411
S        4.4161364252    1.0953153975    4.0184001185
C        4.5104666631   -0.5805088997    4.7161281753
Cl       3.2736330106   -1.6507556471    4.0022897147
Cl       6.1358324865   -1.2152393919    4.3710840931
Cl       4.2608651080   -0.4472938930    6.4726084598
H        1.3245209494    2.0844227731   -0.3208568713
H        1.3601869383    0.3943564845   -0.7920977584
H       -1.0807216996    0.9527888788   -0.9401343614
H       -2.3562249184    0.9211334909    1.0654319679
H       -0.6970733223    0.0095361342    3.0310378080
H       -1.2369469265    1.6719678442    3.1814911416
24   
Iteration 4 Energy -0.01445480
C        0.9730291299    1.0926409740   -0.0386929369
C       -0.5589142530    1.0182026737    0.0066417776
C       -1.2750850783    0.9462617482    1.1571027297
C       -0.6537905973    0.9889832712    2.5593774039
C        0.7761033234    1.5136952971    2.4159726047
H        0.7504242894    2.5623684309    2.1172762277
C        1.4963970742    0.6754961228    1.3366654012
H        1.2891741792   -0.3837672414    1.4954395531
C        2.9638033137    0.8165653556    1.7114011241
O        3.9283983534    0.5641764312    0.9958580848
N        2.9884144088    1.2069533850    3.0307344373
C        1.7561916645    1.4804169101    3.5788090079
O        1.4922078875    1.6856911325    4.7597027873
S        4.4204718893    1.0856066622    3.9973096250
C        4.5066241882   -0.5873302060    4.7132396970
Cl       3.3410552404   -1.7096234669    3.9583341962
Cl       6.1618587951   -1.1939374320    4.4654757918
Cl       4.1675671355   -0.4485860101    6.4553904295
H        1.3099563694    2.0939695608   -0.3110917694
H        1.3548234788    0.4070404549   -0.7968985137
H       -1.0910368965    0.9587439593   -0.9339963988
H       -2.3547151520    0.9156687064    1.0863043866
H       -0.6761204656    0.0046265660    3.0297392212
H       -1.2268382782    1.6631367145    3.1979051323
24   
Iteration 5 Energy -0.01566137
C        0.9542413299    1.1008953189   -0.0280590633
C       -0.5739315692    1.0020714010    0.0509832496
C       -1.2696755236    0.9297921743    1.2139780777
C       -0.6080367733    0.9756824858    2.5970440164
C        0.8023264865    1.5327257116    2.4102572752
H        0.7315756649    2.5742980611    2.0884370483
C        1.5027797917    0.6768899967    1.3322171920
H        1.2842408497   -0.3827042638    1.4839247621
C        2.9748308487    0.8116513406    1.6753574006
O        3.9277697333    0.4810328329    0.9747135909
N        3.0279617773    1.2607345477    2.9751026793
C        1.8078040234    1.5420111850    3.5469331935
O        1.5737617630    1.8037654598    4.7240764150
S        4.4589746878    1.0697082869    3.9375994713
C        4.4529447951   -0.5997091716    4.6741383169
Cl       3.5422290511   -1.7902709377    3.7031195370
Cl       6.1465040923   -1.1386879476    4.8110736203
Cl       3.7353525375   -0.4802352917    6.3008962975
H        1.2621468145    2.1165898254   -0.2843910091
H        1.3408009351    0.4392315989   -0.8060873564
H       -1.1201023753    0.9411265776   -0.8826052588
H       -2.3514871597    0.8850133251    1.1717413929
H       -0.5882448476   -0.0183812887    3.0486125906
H       -1.1747669330    1.6237687716    3.2689365606
24   
Iteration 6 Energy -0.01631991
C        0.9270191428    1.1063614034   -0.0182626798
C       -0.5994927064    0.9891582132    0.0905881476
C       -1.2514902528    0.9221282336    1.2795124448
C       -0.5555556397    0.9698581994    2.6452843383
C        0.8357738136    1.5509779477    2.4102894067
H        0.7234038431    2.5841123782    2.0702378573
C        1.5065449357    0.6767771256    1.3271952957
H        1.2771817752   -0.3822368151    1.4729404289
C        2.9858990078    0.8044228025    1.6328837790
O        3.9155312085    0.3987081630    0.9396126949
N        3.0793245464    1.3003598763    2.9137203599
C        1.8749736423    1.5965725419    3.5119838392
O        1.6765582677    1.9064165147    4.6844987210
S        4.5078078564    1.0392206622    3.8651992383
C        4.3956760366   -0.6146628144    4.6301618985
Cl       3.9351958696   -1.8959945806    3.4749974862
Cl       5.9975189392   -1.0089498632    5.3096591836
Cl       3.2011778760   -0.5413262112    5.9524459894
H        1.2077563471    2.1337046763   -0.2612450268
H        1.3145199349    0.4666927239   -0.8147361070
H       -1.1697235763    0.9209751490   -0.8285476501
H       -2.3344618688    0.8724603672    1.2747189738
H       -0.5012778342   -0.0331535789    3.0748933260
H       -1.1098611648    1.5944168851    3.3499680544
24   
Iteration 7 Energy -0.01753717
C        0.9368371133    1.0596195527   -0.0097789604
C       -0.5932842859    0.9717463066    0.0864059227
C       -1.2742863796    0.9454651430    1.2607870592
C       -0.5967701565    1.0218451878    2.6367259408
C        0.8140432607    1.5660424309    2.4126609565
H        0.7341637838    2.5938757078    2.0520796744
C        1.4945503536    0.6634396540    1.3568728865
H        1.2597194757   -0.3893559840    1.5283601582
C        2.9721223908    0.7923426260    1.6845620457
O        3.9044775802    0.3902271758    0.9942703351
N        3.0503234432    1.2885558785    2.9659398087
C        1.8382841294    1.6150748392    3.5316465017
O        1.6201138671    1.9452158109    4.6939363506
S        4.4773323648    1.0656136493    3.9243853185
C        4.4575394780   -0.6282069802    4.6005630673
Cl       4.1425629907   -1.8488717711    3.3379539537
Cl       6.0608100139   -0.9353067687    5.3170790619
Cl       3.2157665710   -0.7356256438    5.8751066499
H        1.2367235143    2.0726320800   -0.2855024652
H        1.3205684514    0.3870831443   -0.7797691644
H       -1.1500446372    0.8811106296   -0.8381100111
H       -2.3567876729    0.9199347794    1.2327796987
H       -0.5751882084    0.0332626335    3.0999624116
H       -1.1495774414    1.6812799186    3.3090827994
24   
Iteration 8 Energy -0.01849166
C        0.9226208490    1.0519025882   -0.0265682907
C       -0.6092058267    1.0068031816    0.0801394286
C       -1.3065522928    0.9864223051    1.2453030274
C       -0.6258577043    1.0464935672    2.6231476428
C        0.8079506747    1.5427896254    2.4101329576
H        0.7752620283    2.5774170381    2.0684490601
C        1.4783060059    0.6469318133    1.3407738192
H        1.2409774286   -0.4028609425    1.5152872482
C        2.9602331879    0.7609549930    1.6732637544
O        3.8849607232    0.4287759100    0.9389234037
N        3.0404936182    1.2034284444    2.9744333777
C        1.8321407102    1.5483090751    3.5358417579
O        1.6144546045    1.8509752690    4.7040660847
S        4.4858682207    1.0438372691    3.9121678377
C        4.5164332582   -0.6197905277    4.6520731866
Cl       4.2983297313   -1.8685923943    3.3998145292
Cl       6.1111462693   -0.8182975957    5.4178978263
Cl       3.2424821379   -0.7546759559    5.8896947225
H        1.2514766753    2.0509284783   -0.3162540685
H        1.2773709320    0.3606340957   -0.7924842469
H       -1.1674593729    0.9255202015   -0.8429752352
H       -2.3874987902    0.9939535087    1.2044559962
H       -0.6436878049    0.0639899317    3.0970877992
H       -1.1602452633    1.7311501207    3.2833283813
24   
Iteration 9 Energy -0.01881021
C        0.9158689135    1.0226012275   -0.0201770862
C       -0.6193439272    1.0116180973    0.0602153786
C       -1.2972936486    1.0161463988    1.2367452939
C       -0.6425265599    1.0809955265    2.6246060564
C        0.8028530772    1.5418102837    2.4210237495
H        0.8036540339    2.5748913287    2.0747013436
C        1.4579409047    0.6288910769    1.3583000286
H        1.2081410296   -0.4140380786    1.5521582345
C        2.9405704711    0.7245824898    1.6949224292
O        3.8648740710    0.4156777392    0.9506667781
N        3.0215158803    1.1663796292    2.9963709475
C        1.8183489864    1.5328951338    3.5558902757
O        1.6021745771    1.8476224386    4.7206299872
S        4.4817940335    1.0558390592    3.9160827307
C        4.5561849009   -0.6127164337    4.6322812187
Cl       4.5875585293   -1.8142827430    3.3185604936
Cl       6.0634122602   -0.7080559306    5.5731011660
Cl       3.1615468134   -0.8919571185    5.7039088558
H        1.2741012011    2.0060203820   -0.3268808254
H        1.2593329382    0.3077204306   -0.7689974849
H       -1.1820179612    0.9281605493   -0.8597864757
H       -2.3777546399    1.0399045325    1.1953026632
H       -0.6889091255    0.1076999299    3.1146505121
H       -1.1720267590    1.7885940510    3.2637237295
24   
Iteration 10 Energy -0.01896695
C        0.9167242608    1.0256613287   -0.0171604233
C       -0.6156374147    1.0080756071    0.0771024357
C       -1.3041218324    1.0103858751    1.2471698237
C       -0.6343575708    1.0760675551    2.6274887616
C        0.8064709770    1.5460524811    2.4162963627
H        0.7972762309    2.5790213564    2.0666991214
C        1.4626736716    0.6319223242    1.3569942764
H        1.2122218049   -0.4113259377    1.5530267999
C        2.9444538570    0.7290503415    1.6883296085
O        3.8720863101    0.4053812663    0.9537867047
N        3.0267704144    1.1800933252    2.9862575176
C        1.8232517534    1.5429663317    3.5476636738
O        1.6087846332    1.8620770412    4.7122391794
S        4.4855171591    1.0574021273    3.9098534780
C        4.5453018807   -0.6144119041    4.6226906867
Cl       4.6241978097   -1.8231452009    3.3161813065
Cl       6.0181742950   -0.7131896137    5.6179563895
Cl       3.1138765049   -0.8966107840    5.6451330808
H        1.2702446429    2.0118662345   -0.3217977152
H        1.2593834794    0.3137974616   -0.7698148674
H       -1.1757486694    0.9290157009   -0.8455230540
H       -2.3855082296    1.0256589648    1.2076308043
H       -0.6696896273    0.1014727996    3.1168030095
H       -1.1623463407    1.7797153179    3.2729930391
24   
Iteration 11 Energy -0.01898538
C        0.9180678835    1.0326719063   -0.0201245637
C       -0.6142570104    1.0090512265    0.0730063987
C       -1.3005374681    1.0041324610    1.2443131912
C       -0.6323530115    1.0678759197    2.6251813465
C        0.8066192095    1.5439428891    2.4163685007
H        0.7951209858    2.5787596866    2.0719937967
C        1.4657948261    0.6375333267    1.3527120019
H        1.2202195570   -0.4071238919    1.5480772081
C        2.9472773870    0.7381444767    1.6836726646
O        3.8764809363    0.4218157429    0.9474588215
N        3.0277579721    1.1809832277    2.9843711455
C        1.8231637472    1.5366253650    3.5476530860
O        1.6075713296    1.8421058220    4.7161514972
S        4.4856736479    1.0570032097    3.9108965624
C        4.5394336869   -0.6118845046    4.6313750700
Cl       4.5054245759   -1.8330458978    3.3339621062
Cl       6.0621063883   -0.7511000294    5.5435047816
Cl       3.1583257861   -0.8408753591    5.7333913342
H        1.2710401423    2.0192786664   -0.3242468796
H        1.2617660230    0.3212569500   -0.7727792639
H       -1.1745885050    0.9323313647   -0.8497531378
H       -2.3821005331    1.0141284658    1.2059259254
H       -0.6651340671    0.0932313724    3.1147104345
H       -1.1628734893    1.7701576034    3.2701779721
24   
Iteration 12 Energy -0.01899582
C        0.9169370415    1.0296193337   -0.0194734902
C       -0.6156077138    1.0076904854    0.0731629778
C       -1.3013340356    1.0059787909    1.2448310922
C       -0.6336762860    1.0720436584    2.6259654268
C        0.8060347396    1.5459434562    2.4164410337
H        0.7957860042    2.5799834759    2.0699010017
C        1.4642235436    0.6367689081    1.3543533872
H        1.2178000052   -0.4073233500    1.5514487384
C        2.9457748739    0.7368369310    1.6854115203
O        3.8741488913    0.4188837374    0.9487875611
N        3.0267747508    1.1803327500    2.9858604963
C        1.8225526985    1.5394460227    3.5479778218
O        1.6066711714    1.8494644396    4.7152792989
S        4.4854173404    1.0559595510    3.9116678160
C        4.5431687438   -0.6143690357    4.6287899049
Cl       4.5553100743   -1.8298421435    3.3259240119
Cl       6.0471544334   -0.7370043721    5.5736647063
Cl       3.1422948019   -0.8670848845    5.7002273162
H        1.2709575637    2.0151008199   -0.3259479710
H        1.2601114321    0.3160127655   -0.7702598779
H       -1.1761332920    0.9294344389   -0.8492954937
H       -2.3828205716    1.0177468592    1.2063933426
H       -0.6681058970    0.0986971811    3.1179183967
H       -1.1634403136    1.7766801806    3.2689709821
24   
Iteration 13 Energy -0.01899673
C        0.9170117847    1.0290014740   -0.0193367356
C       -0.6154816272    1.0073459787    0.0733959568
C       -1.3014876558    1.0058436951    1.2448751742
C       -0.6338688718    1.0726443412    2.6259966410
C        0.8059575183    1.5464702671    2.4166866757
H        0.7959825514    2.5805234756    2.0701932425
C        1.4641990618    0.6370865714    1.3547533001
H        1.2178440998   -0.4069071456    1.5525109246
C        2.9457027752    0.7369383965    1.6858480095
O        3.8741155346    0.4190492582    0.9491442420
N        3.0264481072    1.1806925336    2.9861827985
C        1.8221935236    1.5392979646    3.5485584360
O        1.6063184792    1.8492287072    4.7159855921
S        4.4852425687    1.0563615104    3.9120459358
C        4.5435863152   -0.6145525246    4.6277210913
Cl       4.5611495751   -1.8287116087    3.3236978507
Cl       6.0449834111   -0.7359814466    5.5768767805
Cl       3.1399355443   -0.8702988161    5.6947962165
H        1.2716037671    2.0138929823   -0.3270407744
H        1.2597660141    0.3142228428   -0.7692021301
H       -1.1758907472    0.9291018116   -0.8491314201
H       -2.3829656130    1.0175144928    1.2062446775
H       -0.6687102427    0.0999774721    3.1192708624
H       -1.1636358737    1.7782577663    3.2679266525
24   
Iteration 14 Energy -0.01899711
C        0.9170331408    1.0288237813   -0.0193186316
C       -0.6154128114    1.0064945973    0.0735978989
C       -1.3013098709    1.0047586476    1.2451256620
C       -0.6336816582    1.0727301852    2.6261723464
C        0.8059073136    1.5473609732    2.4167709696
H        0.7955310486    2.5814184099    2.0703035357
C        1.4645174707    0.6381514169    1.3549554735
H        1.2188318076   -0.4059162511    1.5532342628
C        2.9460399421    0.7384057630    1.6858547089
O        3.8746971311    0.4206732235    0.9492842167
N        3.0267509022    1.1818968283    2.9862697340
C        1.8222588048    1.5398950559    3.5485231585
O        1.6062388171    1.8492637060    4.7161786816
S        4.4852954931    1.0562225956    3.9126450932
C        4.5430627182   -0.6153135239    4.6270241725
Cl       4.5615530750   -1.8286772331    3.3222660437
Cl       6.0436697777   -0.7376274221    5.5773359761
Cl       3.1385452729   -0.8717118170    5.6928121292
H        1.2715877850    2.0133177099   -0.3283353409
H        1.2597083091    0.3130282400   -0.7682545558
H       -1.1758650587    0.9280805019   -0.8488903707
H       -2.3827984151    1.0157652309    1.2065485983
H       -0.6683595704    0.1008196930    3.1209589717
H       -1.1638014249    1.7791396878    3.2669372656
24   
Iteration 15 Energy -0.01899716
C        0.9171413797    1.0288541285   -0.0193190370
C       -0.6152858055    1.0061289357    0.0736864230
C       -1.3011047621    1.0042329769    1.2452558992
C       -0.6334395991    1.0725600061    2.6262702428
C        0.8060300192    1.5475857004    2.4168531327
H        0.7954209210    2.5816507582    2.0704244366
C        1.4647747769    0.6385183201    1.3549853339
H        1.2193870153   -0.4056247620    1.5532377461
C        2.9462637802    0.7390159329    1.6857969101
O        3.8748259190    0.4212973417    0.9491099080
N        3.0268579401    1.1824731810    2.9862119621
C        1.8223858654    1.5402744777    3.5486587037
O        1.6063390053    1.8493834957    4.7163694032
S        4.4852259939    1.0561549845    3.9127056165
C        4.5424360514   -0.6155209558    4.6268105316
Cl       4.5595036680   -1.8287660657    3.3219246904
Cl       6.0435539059   -0.7387009913    5.5761950001
Cl       3.1384293980   -0.8712837583    5.6934210847
H        1.2714323312    2.0133651337   -0.3285782505
H        1.2599151228    0.3129692469   -0.7681239653
H       -1.1757812225    0.9276017052   -0.8487659512
H       -2.3825972193    1.0149861465    1.2067196202
H       -0.6679434889    0.1008039155    3.1213709580
H       -1.1637709955    1.7790401459    3.2667796013
24   
Iteration 16 Energy -0.01899717
C        0.9171562559    1.0288513096   -0.0193109190
C       -0.6152719338    1.0060487850    0.0737131799
C       -1.3010635400    1.0041380055    1.2453014640
C       -0.6333868062    1.0725212854    2.6263081488
C        0.8060524330    1.5476169988    2.4168566699
H        0.7954051639    2.5816850538    2.0704448240
C        1.4648197968    0.6385824687    1.3550021453
H        1.2194818765   -0.4055776648    1.5532155697
C        2.9463236090    0.7391028646    1.6857897303
O        3.8748931005    0.4214124085    0.9491225945
N        3.0269773721    1.1826351390    2.9861855883
C        1.8224608570    1.5403410522    3.5486047366
O        1.6064042111    1.8493923578    4.7163063406
S        4.4852576876    1.0561405587    3.9127107526
C        4.5422646438   -0.6155533220    4.6267811590
Cl       4.5590652270   -1.8287650931    3.3218632629
Cl       6.0434643513   -0.7388920395    5.5760072376
Cl       3.1383340760   -0.8711804124    5.6935202788
H        1.2713334341    2.0134030457   -0.3285658180
H        1.2599776414    0.3130117495   -0.7681362456
H       -1.1757851197    0.9274779102   -0.8487241102
H       -2.3825561596    1.0148588257    1.2067773055
H       -0.6678383276    0.1007729785    3.1214253310
H       -1.1637698502    1.7789757348    3.2668007735
24   
Iteration 17 Energy -0.01899717
C        0.9171594817    1.0288359871   -0.0193013072
C       -0.6152672319    1.0059811286    0.0737407636
C       -1.3010454743    1.0040893292    1.2453377134
C       -0.6333545525    1.0725250321    2.6263355327
C        0.8060707464    1.5476468635    2.4168545941
H        0.7954095146    2.5817095212    2.0704271567
C        1.4648446157    0.6386113635    1.3550141702
H        1.2195322219   -0.4055522728    1.5532402178
C        2.9463518705    0.7391588898    1.6857813561
O        3.8749123395    0.4214735156    0.9491123087
N        3.0270221563    1.1827226127    2.9861675644
C        1.8224979734    1.5404142095    3.5485844180
O        1.6064399219    1.8494521426    4.7162774733
S        4.4852669776    1.0561276678    3.9127097660
C        4.5421777995   -0.6155848895    4.6267449096
Cl       4.5590927459   -1.8287445350    3.3217807994
Cl       6.0432963169   -0.7389586976    5.5760935274
Cl       3.1381594172   -0.8712600812    5.6933563888
H        1.2712678026    2.0134170281   -0.3285412981
H        1.2600175953    0.3130306621   -0.7681424830
H       -1.1757879731    0.9273673034   -0.8486883026
H       -2.3825388183    1.0147842982    1.2068257636
H       -0.6677684508    0.1007826601    3.1214668935
H       -1.1637569960    1.7789702610    3.2668220734
24   
Iteration 18 Energy -0.01899717
C        0.9171604868    1.0288273517   -0.0192976763
C       -0.6152652737    1.0059481295    0.0737476338
C       -1.3010412461    1.0040723874    1.2453459260
C       -0.6333484421    1.0725401412    2.6263415630
C        0.8060762188    1.5476626545    2.4168547415
H        0.7954208487    2.5817233795    2.0704213084
C        1.4648521139    0.6386237252    1.3550201867
H        1.2195478679   -0.4055380354    1.5532670417
C        2.9463595989    0.7391826367    1.6857809528
O        3.8749179465    0.4215085788    0.9491072568
N        3.0270307694    1.1827535391    2.9861647356
C        1.8225035832    1.5404325257    3.5485849391
O        1.6064410663    1.8494543083    4.7162784370
S        4.4852685089    1.0561254612    3.9127150458
C        4.5421569873   -0.6155982132    4.6267275886
Cl       4.5591158541   -1.8287298109    3.3217379641
Cl       6.0432449459   -0.7389930574    5.5761219991
Cl       3.1381056032   -0.8713006750    5.6932891945
H        1.2712433966    2.0134195711   -0.3285312697
H        1.2600384265    0.3130337834   -0.7681410253
H       -1.1757857689    0.9273041516   -0.8486789771
H       -2.3825348089    1.0147499664    1.2068361440
H       -0.6677532802    0.1008055955    3.1214891411
H       -1.1637554031    1.7789919052    3.2668171487
24   
Iteration 19 Energy -0.01899717
C        0.9171612182    1.0288247909   -0.0192948592
C       -0.6152632779    1.0059205925    0.0737505490
C       -1.3010389692    1.0040581163    1.2453486791
C       -0.6333474812    1.0725596796    2.6263431869
C        0.8060793801    1.5476774800    2.4168544101
H        0.7954325704    2.5817366591    2.0704160745
C        1.4648565815    0.6386338224    1.3550243149
H        1.2195563936   -0.4055253200    1.5532909167
C        2.9463639108    0.7392017738    1.6857811754
O        3.8749225577    0.4215390645    0.9491031823
N        3.0270328869    1.1827717497    2.9861651831
C        1.8225039274    1.5404421003    3.5485877211
O        1.6064368579    1.8494463424    4.7162847245
S        4.4852687701    1.0561225099    3.9127226105
C        4.5421479392   -0.6156110371    4.6267144437
Cl       4.5591222885   -1.8287237146    3.3217072837
Cl       6.0432218403   -0.7390265796    5.5761288437
Cl       3.1380810297   -0.8713269723    5.6932525577
H        1.2712236008    2.0134268345   -0.3285208435
H        1.2600587448    0.3130424111   -0.7681399721
H       -1.1757818467    0.9272415108   -0.8486742305
H       -2.3825327805    1.0147111936    1.2068392555
H       -0.6677494090    0.1008346584    3.1215099000
H       -1.1637567333    1.7790223337    3.2668048929
24   
Iteration 20 Energy -0.01899717
C        0.9171617638    1.0288295051   -0.0192935950
C       -0.6152620937    1.0059097526    0.0737501006
C       -1.3010383859    1.0040512716    1.2453476727
C       -0.6333491041    1.0725721385    2.6263422689
C        0.8060804926    1.5476839637    2.4168540695
H        0.7954390879    2.5817428025    2.0704147133
C        1.4648571467    0.6386376507    1.3550250931
H        1.2195555639   -0.4055202202    1.5532968563
C        2.9463643949    0.7392064418    1.6857816302
O        3.8749239149    0.4215477119    0.9491019842
N        3.0270320652    1.1827735275    2.9861665821
C        1.8225029309    1.5404424789    3.5485895418
O        1.6064338373    1.8494392225    4.7162891854
S        4.4852686775    1.0561193964    3.9127259448
C        4.5421477760   -0.6156174226    4.6267105012
Cl       4.5591156965   -1.8287267184    3.3217000767
Cl       6.0432235368   -0.7390400898    5.5761211255
Cl       3.1380825954   -0.8713323035    5.6932511463
H        1.2712141414    2.0134372147   -0.3285129782
H        1.2600698835    0.3130551165   -0.7681415044
H       -1.1757789543    0.9272069098   -0.8486736841
H       -2.3825323665    1.0146844230    1.2068377047
H       -0.6677538716    0.1008536360    3.1215216317
H       -1.1637587295    1.7790435909    3.2667939325
