3    
Iteration 36 Energy -92.35408361
C        0.0304547377   -0.0047966901   -0.0001123794
N       -1.0881202836    0.1995749938    0.0111742858
H        1.0627390025   -0.1934025575   -0.0105283515
3    
Iteration 35 Energy -92.35408361
C        0.0304547298   -0.0047967486   -0.0001123790
N       -1.0881202757    0.1995750211    0.0111742856
H        1.0627390025   -0.1934025263   -0.0105283516
3    
Iteration 34 Energy -92.35407142
C        0.0303414946   -0.0089879905   -0.0000918253
N       -1.0872142844    0.2014291798    0.0111558359
H        1.0619462464   -0.1910654430   -0.0105304558
3    
Iteration 33 Energy -92.35383808
C        0.0249853218   -0.0286608122    0.0000573944
N       -1.0863272978    0.2111644642    0.0111012729
H        1.0664154324   -0.1811279058   -0.0106251124
3    
Iteration 32 Energy -92.35324622
C        0.0233233557   -0.0494153425    0.0001712132
N       -1.0812676992    0.2204011508    0.0110033917
H        1.0630178000   -0.1696100621   -0.0106410500
3    
Iteration 31 Energy -92.35231299
C        0.0197881975   -0.0699686838    0.0003045831
N       -1.0772161825    0.2298285448    0.0109156522
H        1.0625014415   -0.1584841149   -0.0106866804
3    
Iteration 30 Energy -92.35102584
C        0.0162111079   -0.0907868950    0.0004396320
N       -1.0723310553    0.2392354930    0.0108188937
H        1.0611934039   -0.1470728518   -0.0107249708
3    
Iteration 29 Energy -92.34939532
C        0.0126359485   -0.1117097538    0.0005751421
N       -1.0666123892    0.2485427379    0.0107134823
H        1.0590498972   -0.1354572378   -0.0107550695
3    
Iteration 28 Energy -92.34743462
C        0.0090822041   -0.1326485969    0.0007104918
N       -1.0600729684    0.2577093559    0.0105997462
H        1.0560642208   -0.1236850128   -0.0107766831
3    
Iteration 27 Energy -92.34515698
C        0.0055583461   -0.1535472576    0.0008453295
N       -1.0527307921    0.2667115481    0.0104779920
H        1.0522459025   -0.1117885443   -0.0107897666
3    
Iteration 26 Energy -92.34257464
C        0.0020673806   -0.1743667002    0.0009794426
N       -1.0446079633    0.2755346393    0.0103485290
H        1.0476140392   -0.0997921929   -0.0107944166
3    
Iteration 25 Energy -92.33969871
C       -0.0013905966   -0.1950779033    0.0011126962
N       -1.0357288402    0.2841691494    0.0102116670
H        1.0421928933   -0.0877154999   -0.0107908083
3    
Iteration 24 Energy -92.33653954
C       -0.0048172951   -0.2156583084    0.0012450051
N       -1.0261190389    0.2926088215    0.0100677150
H        1.0360097905   -0.0755747669   -0.0107791651
3    
Iteration 23 Energy -92.33310721
C       -0.0082158998   -0.2360898335    0.0013763207
N       -1.0158046906    0.3008494670    0.0099169780
H        1.0290940469   -0.0633838873   -0.0107597437
3    
Iteration 22 Energy -92.32941230
C       -0.0115911453   -0.2563576369    0.0015066264
N       -1.0048118536    0.3088881854    0.0097597541
H        1.0214764555   -0.0511548024   -0.0107328256
3    
Iteration 21 Energy -92.32546649
C       -0.0149495766   -0.2764492651    0.0016359363
N       -0.9931660230    0.3167227586    0.0095963324
H        1.0131890562   -0.0388977473   -0.0106987139
3    
Iteration 20 Energy -92.32128329
C       -0.0182998416   -0.2963540104    0.0017642957
N       -0.9808917114    0.3243511327    0.0094269903
H        1.0042650096   -0.0266213761   -0.0106577312
3    
Iteration 19 Energy -92.31687868
C       -0.0216529066   -0.3160623924    0.0018917808
N       -0.9680120871    0.3317709538    0.0092519920
H        0.9947384502   -0.0143328153   -0.0106102178
3    
Iteration 18 Energy -92.31227192
C       -0.0250221153   -0.3355657173    0.0020184973
N       -0.9545486707    0.3389791523    0.0090715867
H        0.9846442425   -0.0020376888   -0.0105565291
3    
Iteration 17 Energy -92.30748631
C       -0.0284230452   -0.3548556942    0.0021445773
N       -0.9405211045    0.3459715881    0.0088860084
H        0.9740176062    0.0102598523   -0.0104970308
3    
Iteration 16 Energy -92.30254998
C       -0.0318731648   -0.3739240985    0.0022701740
N       -0.9259470226    0.3527427763    0.0086954751
H        0.9628936439    0.0225570684   -0.0104320942
3    
Iteration 15 Energy -92.29749673
C       -0.0353913454   -0.3927624948    0.0023954547
N       -0.9108420586    0.3592857111    0.0085001900
H        0.9513068605    0.0348525299   -0.0103620898
3    
Iteration 14 Energy -92.29236675
C       -0.0389973302   -0.4113620370    0.0025205945
N       -0.8952200291    0.3655917974    0.0083003437
H        0.9392908158    0.0471459857   -0.0102873833
3    
Iteration 13 Energy -92.28720717
C       -0.0427112886   -0.4297133788    0.0026457708
N       -0.8790933132    0.3716508855    0.0080961184
H        0.9268780583    0.0594382394   -0.0102083344
3    
Iteration 12 Energy -92.28207226
C       -0.0465535666   -0.4478067177    0.0027711610
N       -0.8624734265    0.3774513845    0.0078876934
H        0.9141004497    0.0717310794   -0.0101252995
3    
Iteration 11 Energy -92.27702326
C       -0.0505447059   -0.4656319856    0.0028969430
N       -0.8453717533    0.3829804170    0.0076752525
H        0.9009899156    0.0840273149   -0.0100386406
3    
Iteration 10 Energy -92.27212752
C       -0.0547057393   -0.4831791786    0.0030233009
N       -0.8278003773    0.3882239712    0.0074589923
H        0.8875795731    0.0963309536   -0.0099487383
3    
Iteration 9 Energy -92.26745701
C       -0.0590587240   -0.5004387997    0.0031504319
N       -0.8097729474    0.3931670078    0.0072391314
H        0.8739051279    0.1086475381   -0.0098560084
3    
Iteration 8 Energy -92.26308611
C       -0.0636274433   -0.5174023829    0.0032785570
N       -0.7913055245    0.3977934903    0.0070159193
H        0.8600064243    0.1209846388   -0.0097609214
3    
Iteration 7 Energy -92.25908871
C       -0.0684382043   -0.5340630685    0.0034079323
N       -0.7724173902    0.4020863224    0.0067896455
H        0.8459290509    0.1333524923   -0.0096640229
3    
Iteration 6 Energy -92.25553477
C       -0.0735206205   -0.5504161952    0.0035388599
N       -0.7531317991    0.4060271978    0.0065606487
H        0.8317258761    0.1457647437   -0.0095659537
3    
Iteration 5 Energy -92.25248669
C       -0.0789078636   -0.5664597297    0.0036716932
N       -0.7334764695    0.4095964440    0.0063293224
H        0.8174577895    0.1582390319   -0.0094674608
3    
Iteration 4 Energy -92.24999567
C       -0.0846311576   -0.5821924619    0.0038067679
N       -0.7134811847    0.4127737425    0.0060960861
H        0.8031857987    0.1707944656   -0.0093692991
3    
Iteration 3 Energy -92.24809801
C       -0.0904462211   -0.5974963542    0.0039408695
N       -0.6930391448    0.4155829873    0.0058596619
H        0.7885588224    0.1832891131   -0.0092669765
3    
Iteration 2 Energy -92.24681884
C       -0.0988590874   -0.6134399899    0.0041063193
N       -0.6737911812    0.4175896099    0.0056399907
H        0.7777237250    0.1972261262   -0.0092127550
3    
Iteration 1 Energy -92.24617538
C       -0.1012350298   -0.6247084322    0.0041842257
N       -0.6526922206    0.4198642748    0.0053988486
H        0.7590007068    0.2062199036   -0.0090495193
3    
Iteration 0 Energy -92.24604266
C       -0.1088783634   -0.6365101639    0.0043221742
N       -0.6393457902    0.4205365638    0.0052498438
H        0.7532976101    0.2173493463   -0.0090384631
3    
Iteration 1 Energy -92.24632344
C       -0.1162922000   -0.6510126806    0.0044700607
N       -0.6186302518    0.4219453514    0.0050168839
H        0.7399959083    0.2304430753   -0.0089533897
3    
Iteration 2 Energy -92.24714690
C       -0.1243467197   -0.6645535181    0.0046205194
N       -0.5970864716    0.4222150633    0.0047801190
H        0.7265066478    0.2437142010   -0.0088670834
3    
Iteration 3 Energy -92.24845903
C       -0.1331061973   -0.6784673048    0.0047804035
N       -0.5759813617    0.4222997644    0.0045490023
H        0.7141610155    0.2575432866   -0.0087958510
3    
Iteration 4 Energy -92.25019378
C       -0.1426737516   -0.6921206132    0.0049479213
N       -0.5550103372    0.4216439164    0.0043227645
H        0.7027575453    0.2718524430   -0.0087371310
3    
Iteration 5 Energy -92.25228251
C       -0.1531768269   -0.7056462946    0.0051250783
N       -0.5344245820    0.4202308762    0.0041042281
H        0.6926748654    0.2867911646   -0.0086957516
3    
Iteration 6 Energy -92.25466118
C       -0.1647167245   -0.7190875166    0.0053131809
N       -0.5144369790    0.4179858762    0.0038960651
H        0.6842271600    0.3024773866   -0.0086756911
3    
Iteration 7 Energy -92.25727888
C       -0.1773526866   -0.7324637688    0.0055129664
N       -0.4952675375    0.4148394090    0.0037010009
H        0.6776936806    0.3190001061   -0.0086804125
3    
Iteration 8 Energy -92.26010283
C       -0.1910681263   -0.7457625607    0.0057241961
N       -0.4770958109    0.4107502259    0.0035211886
H        0.6732373937    0.3363880810   -0.0087118299
3    
Iteration 9 Energy -92.26311595
C       -0.2057526743   -0.7589364432    0.0059454447
N       -0.4599947995    0.4057246628    0.0033573971
H        0.6708209303    0.3545875267   -0.0087692869
3    
Iteration 10 Energy -92.26630768
C       -0.2212192289   -0.7719120454    0.0061743285
N       -0.4438900044    0.3998203081    0.0032085465
H        0.6701826898    0.3734674835   -0.0088493201
3    
Iteration 11 Energy -92.26966448
C       -0.2372511294   -0.7846062584    0.0064080961
N       -0.4285839298    0.3931283300    0.0030720575
H        0.6709085157    0.3928536746   -0.0089465987
3    
Iteration 12 Energy -92.27316548
C       -0.2536498496   -0.7969401782    0.0066442133
N       -0.4138317359    0.3857458793    0.0029448058
H        0.6725550420    0.4125700451   -0.0090554643
3    
Iteration 13 Energy -92.27678288
C       -0.2702590265   -0.8088461219    0.0068806589
N       -0.3994120401    0.3777558165    0.0028239894
H        0.6747445231    0.4324660516   -0.0091710934
3    
Iteration 14 Energy -92.28048414
C       -0.2869647255   -0.8202688162    0.0071159327
N       -0.3851583915    0.3692203642    0.0027075017
H        0.6771965734    0.4524241982   -0.0092898794
3    
Iteration 15 Energy -92.28423428
C       -0.3036848916   -0.8311637311    0.0073489322
N       -0.3709581197    0.3601841458    0.0025939053
H        0.6797164678    0.4723553315   -0.0094092826
3    
Iteration 16 Energy -92.28799775
C       -0.3203582184   -0.8414948261    0.0075788212
N       -0.3567386783    0.3506801030    0.0024822555
H        0.6821703532    0.4921904693   -0.0095275218
3    
Iteration 17 Energy -92.29174026
C       -0.3369361011   -0.8512327566    0.0078049332
N       -0.3424538971    0.3407348292    0.0023719247
H        0.6844634547    0.5118736736   -0.0096433030
3    
Iteration 18 Energy -92.29543013
C       -0.3533777195   -0.8603537720    0.0080267123
N       -0.3280738291    0.3303724493    0.0022624746
H        0.6865250051    0.5313570688   -0.0097556321
3    
Iteration 19 Energy -92.29903949
C       -0.3696473553   -0.8688391789    0.0082436821
N       -0.3135780369    0.3196171855    0.0021535700
H        0.6882988486    0.5505977395   -0.0098636972
3    
Iteration 20 Energy -92.30254488
C       -0.3857131375   -0.8766751560    0.0084554302
N       -0.2989513747    0.3084948876    0.0020449262
H        0.6897379688    0.5695560147   -0.0099668015
3    
Iteration 21 Energy -92.30592753
C       -0.4015466440   -0.8838526948    0.0086616046
N       -0.2841814746    0.2970337217    0.0019362783
H        0.6908015750    0.5881947193   -0.0100643279
3    
Iteration 22 Energy -92.30917316
C       -0.4171229364   -0.8903674562    0.0088619125
N       -0.2692573859    0.2852641589    0.0018273659
H        0.6914537788    0.6064790435   -0.0101557236
3    
Iteration 23 Energy -92.31227157
C       -0.4324207020   -0.8962193709    0.0090561207
N       -0.2541689813    0.2732184109    0.0017179301
H        0.6916631398    0.6243767062   -0.0102404959
3    
Iteration 24 Energy -92.31521600
C       -0.4474222559   -0.9014118861    0.0092440518
N       -0.2389068343    0.2609295024    0.0016077155
H        0.6914025467    0.6418581299   -0.0103182124
3    
Iteration 25 Energy -92.31800234
C       -0.4621132658   -0.9059508667    0.0094255760
N       -0.2234623565    0.2484301911    0.0014964773
H        0.6906490788    0.6588964218   -0.0103884984
3    
Iteration 26 Energy -92.32062846
C       -0.4764821763   -0.9098432680    0.0096005990
N       -0.2078280463    0.2357519388    0.0013839885
H        0.6893836791    0.6754670755   -0.0104510326
3    
Iteration 27 Energy -92.32309349
C       -0.4905194118   -0.9130957724    0.0097690471
N       -0.1919977675    0.2229240875    0.0012700467
H        0.6875906358    0.6915474311   -0.0105055389
3    
Iteration 28 Energy -92.32539717
C       -0.5042164893   -0.9157135931    0.0099308515
N       -0.1759670080    0.2099733343    0.0011544797
H        0.6852569538    0.7071160050   -0.0105517762
3    
Iteration 29 Energy -92.32753935
C       -0.5175651843   -0.9176996078    0.0100859355
N       -0.1597331083    0.1969235225    0.0010371483
H        0.6823717490    0.7221518315   -0.0105895290
3    
Iteration 30 Energy -92.32951954
C       -0.5305568452   -0.9190539048    0.0102342050
N       -0.1432954605    0.1837957298    0.0009179490
H        0.6789257622    0.7366339211   -0.0106185991
3    
Iteration 31 Energy -92.33133651
C       -0.5431819019   -0.9197737415    0.0103755427
N       -0.1266557142    0.1706085910    0.0007968138
H        0.6749110725    0.7505408967   -0.0106388015
3    
Iteration 32 Energy -92.33298807
C       -0.5554295367   -0.9198538525    0.0105098060
N       -0.1098180316    0.1573788196    0.0006737111
H        0.6703210249    0.7638507792   -0.0106499622
3    
Iteration 33 Energy -92.33447092
C       -0.5672874303   -0.9192870290    0.0106368272
N       -0.0927895159    0.1441219276    0.0005486472
H        0.6651504028    0.7765408476   -0.0106519195
3    
Iteration 34 Energy -92.33578064
C       -0.5787413896   -0.9180649132    0.0107564124
N       -0.0755810375    0.1308532907    0.0004216701
H        0.6593958837    0.7885873687   -0.0106445275
3    
Iteration 35 Energy -92.33691177
C       -0.5897744935   -0.9161790799    0.0108683379
N       -0.0582090697    0.1175899904    0.0002928810
H        0.6530570197    0.7999648357   -0.0106276640
3    
Iteration 36 Energy -92.33785815
C       -0.6003648575   -0.9136227600    0.0109723333
N       -0.0407001049    0.1043547094    0.0001624651
H        0.6461384189    0.8106437968   -0.0106012435
3    
Iteration 37 Energy -92.33861327
C       -0.6104795434   -0.9103945099    0.0110680317
N       -0.0231024299    0.0911853819    0.0000307755
H        0.6386554298    0.8205848742   -0.0105652523
3    
Iteration 38 Energy -92.33917112
C       -0.6200563721   -0.9065083206    0.0111548180
N       -0.0055211230    0.0781632378   -0.0001014135
H        0.6306509516    0.8297208290   -0.0105198495
3    
Iteration 39 Energy -92.33953198
C       -0.6284490196   -0.9011481239    0.0112218653
N        0.0124545513    0.0659413291   -0.0002416019
H        0.6210679248    0.8365825411   -0.0104467086
3    
Iteration 40 Energy -92.33962653
C       -0.6374545848   -0.8975152771    0.0113035739
N        0.0267905704    0.0509093588   -0.0003290500
H        0.6157374709    0.8479816645   -0.0104409690
3    
Iteration 41 Energy -92.33970706
C       -0.6398663393   -0.8937887530    0.0113127657
N        0.0365721959    0.0490783001   -0.0004275465
H        0.6083675999    0.8460861991   -0.0103516643
3    
Iteration 42 Energy -92.33971311
C       -0.6400260656   -0.8940156736    0.0113155577
N        0.0361265632    0.0484572764   -0.0004198127
H        0.6089729589    0.8469341435   -0.0103621901
3    
Iteration 43 Energy -92.33971311
C       -0.6400260762   -0.8940156657    0.0113155577
N        0.0361265868    0.0484572597   -0.0004198129
H        0.6089729459    0.8469341521   -0.0103621900
