10   
Scan Cycle 1/88 ; Dihedral 3-1-2-10 = 0.00, Angle 1-3-2 = 100.00 ; Iteration 28 Energy -134.51124157
C       -0.2642772913    0.0427333026   -1.1421176503
C        0.6970827934   -0.0207791727    0.8535838708
N       -0.4488013124    0.5656410567    0.1938282024
H        0.7027731049    0.3692940388   -1.5780948757
H       -1.0608964002    0.3814366685   -1.8326160125
H       -0.2779616110   -1.0670592544   -1.1512974247
H        0.6680760908   -1.1295520342    0.8128062932
H        0.7482791249    0.2619976895    1.9229215738
H        1.6488994650    0.3067788907    0.3860253268
H       -1.1673739641    1.1648088143    0.5590606961
10   
Scan Cycle 2/88 ; Dihedral 3-1-2-10 = 0.00, Angle 1-3-2 = 105.00 ; Iteration 10 Energy -134.51971925
C       -0.2804453898    0.0451622778   -1.1709989444
C        0.7096352580   -0.0202255032    0.8843196040
N       -0.4118786736    0.5348519589    0.1750621575
H        0.6760428837    0.3702605211   -1.6341215426
H       -1.0986837784    0.4114847733   -1.8184627873
H       -0.3041627668   -1.0653032539   -1.2075889378
H        0.6958199151   -1.1313460699    0.8683283467
H        0.7143716035    0.2917670702    1.9452408464
H        1.6760517578    0.3041996171    0.4417945399
H       -1.1309508095    1.1344486086    0.5405267176
10   
Scan Cycle 3/88 ; Dihedral 3-1-2-10 = 0.00, Angle 1-3-2 = 110.00 ; Iteration 10 Energy -134.52518052
C       -0.2953925719    0.0467379467   -1.2000911910
C        0.7230774464   -0.0205348582    0.9141770730
N       -0.3742365298    0.5034506548    0.1559302284
H        0.6468229333    0.3723069264   -1.6933539174
H       -1.1345905487    0.4413496554   -1.8005125855
H       -0.3330977817   -1.0628481612   -1.2669606719
H        0.7241950704   -1.1326873279    0.9280218999
H        0.6787098987    0.3216360002    1.9636665361
H        1.7041571804    0.3024180530    0.5015561139
H       -1.0938450973    1.1034711108    0.5216665145
10   
Scan Cycle 4/88 ; Dihedral 3-1-2-10 = 0.00, Angle 1-3-2 = 115.00 ; Iteration 10 Energy -134.52818036
C       -0.3093080670    0.0476330067   -1.2289588561
C        0.7370011626   -0.0214413330    0.9430403963
N       -0.3358107244    0.4714255322    0.1364010977
H        0.6156048002    0.3753696250   -1.7537166493
H       -1.1677915358    0.4703730603   -1.7792625627
H       -0.3641884409   -1.0594097816   -1.3274043364
H        0.7522430797   -1.1331121092    0.9899537292
H        0.6420612756    0.3507922602    1.9779150288
H        1.7319431913    0.3017548078    0.5637219041
H       -1.0559547413    1.0719149316    0.5024102485
10   
Scan Cycle 5/88 ; Dihedral 3-1-2-10 = 0.00, Angle 1-3-2 = 120.00 ; Iteration 10 Energy -134.52911820
C       -0.3223198818    0.0481645836   -1.2571923424
C        0.7509291545   -0.0227357900    0.9708083132
N       -0.2966691768    0.4387837212    0.1165074265
H        0.5829542306    0.3797264535   -1.8134142631
H       -1.1978323842    0.4979054822   -1.7553124448
H       -0.3964179762   -1.0547587317   -1.3872086627
H        0.7788116972   -1.1323954711    1.0527534361
H        0.6053900811    0.3789025410    1.9878715939
H        1.7583216956    0.3019779686    0.6264888383
H       -1.0173674399    1.0397292428    0.4827981050
10   
Scan Cycle 6/88 ; Dihedral 3-1-2-10 = 0.00, Angle 1-3-2 = 125.00 ; Iteration 10 Energy -134.52826513
C       -0.3346565986    0.0484699941   -1.2843959276
C        0.7645297705   -0.0240952521    0.9973695069
N       -0.2569024815    0.4056255303    0.0962962893
H        0.5495580747    0.3848727876   -1.8709713164
H       -1.2243134968    0.5238129562   -1.7293848267
H       -0.4296052401   -1.0489285580   -1.4449464292
H        0.8035732712   -1.1303423397    1.1146972602
H        0.5691534120    0.4052883925    1.9938197207
H        1.7825984856    0.3035784637    0.6887570284
H       -0.9781351969    1.0070180255    0.4628586943
10   
Scan Cycle 7/88 ; Dihedral 3-1-2-10 = 0.00, Angle 1-3-2 = 130.00 ; Iteration 10 Energy -134.52580021
C       -0.3463953303    0.0488156372   -1.3103161138
C        0.7774423158   -0.0254202720    1.0226930821
N       -0.2166235413    0.3720422498    0.0758248232
H        0.5157499149    0.3912404880   -1.9255915294
H       -1.2474326201    0.5476162773   -1.7019532049
H       -0.4627026410   -1.0419106612   -1.4997863194
H        0.8257541342   -1.1270164095    1.1752201945
H        0.5340068096    0.4300581846    1.9960011168
H        1.8043560668    0.3060184500    0.7493670362
H       -0.9383551085    0.9738560557    0.4426409145
10   
Scan Cycle 8/88 ; Dihedral 3-1-2-10 = 0.00, Angle 1-3-2 = 135.00 ; Iteration 11 Energy -134.52184474
C       -0.3577099583    0.0492628102   -1.3347255918
C        0.7894915405   -0.0264821853    1.0467291539
N       -0.1759470589    0.3381326363    0.0551515621
H        0.4820845179    0.3981861797   -1.9766101958
H       -1.2671186144    0.5695924709   -1.6735764837
H       -0.4958205148   -1.0338485155   -1.5510916219
H        0.8455706290   -1.1224197638    1.2332582659
H        0.5000006325    0.4528207641    1.9949119892
H        1.8233831527    0.3097118066    0.8078531784
H       -0.8981343262    0.9403437969    0.4221997437
10   
Scan Cycle 9/88 ; Dihedral 3-1-2-10 = 0.00, Angle 1-3-2 = 140.00 ; Iteration 10 Energy -134.51648922
C       -0.3685001168    0.0498993241   -1.3574463991
C        0.8005096866   -0.0273186235    1.0693338113
N       -0.1348414171    0.3038835960    0.0342606962
H        0.4486564012    0.4062312736   -2.0238382084
H       -1.2838155413    0.5894583624   -1.6444509549
H       -0.5282802726   -1.0248543266   -1.5986187727
H        0.8624810504   -1.1167117887    1.2888184872
H        0.4674443176    0.4739164799    1.9908156708
H        1.8396636705    0.3142257627    0.8636660025
H       -0.8575177785    0.9065699401    0.4015596672
10   
Scan Cycle 10/88 ; Dihedral 3-1-2-10 = 0.00, Angle 1-3-2 = 145.00 ; Iteration 10 Energy -134.50981225
C       -0.3789174601    0.0507373114   -1.3783635391
C        0.8104118841   -0.0277695488    1.0905113829
N       -0.0934049832    0.2694239137    0.0132037194
H        0.4158411222    0.4146487019   -2.0671490446
H       -1.2975557919    0.6076554299   -1.6150164424
H       -0.5604302097   -1.0150854264   -1.6421131359
H        0.8770496685   -1.1099922231    1.3411858476
H        0.4360992683    0.4929230255    1.9842832119
H        1.8531818586    0.3200437193    0.9168463115
H       -0.8164753566    0.8727150967    0.3807116886
10   
Scan Cycle 11/88 ; Dihedral 3-1-2-10 = 0.00, Angle 1-3-2 = 150.00 ; Iteration 10 Energy -134.50189350
C       -0.3888422247    0.0517229247   -1.3975254597
C        0.8189254400   -0.0278074569    1.1103355783
N       -0.0516011638    0.2349191235   -0.0080406005
H        0.3835472948    0.4239673573   -2.1067356537
H       -1.3089960554    0.6234318047   -1.5853354187
H       -0.5911146868   -1.0049081651   -1.6815794889
H        0.8887322079   -1.1023967963    1.3905514859
H        0.4058148233    0.5102520447    1.9755811788
H        1.8639847490    0.3266305526    0.9674096784
H       -0.7746503842    0.8394886108    0.3594387001
10   
Scan Cycle 12/88 ; Dihedral 3-1-2-10 = 10.00, Angle 1-3-2 = 100.00 ; Iteration 20 Energy -134.51544076
C       -0.2546328054    0.0722815423   -1.1498437773
C        0.7098556158   -0.0048016650    0.8511802876
N       -0.4363769372    0.5923582395    0.1922275835
H        0.7063835997    0.4282490874   -1.5641522231
H       -1.0505980351    0.4200026281   -1.8362086347
H       -0.2483492566   -1.0400731712   -1.1891600736
H        0.7111412645   -1.1167211839    0.8008525929
H        0.7600454003    0.2748995735    1.9211492499
H        1.6434117479    0.3537252936    0.3801653886
H       -1.2950805938    0.8953796555    0.6178896062
10   
Scan Cycle 13/88 ; Dihedral 3-1-2-10 = 10.00, Angle 1-3-2 = 105.00 ; Iteration 12 Energy -134.52318138
C       -0.2705503036    0.0755228501   -1.1784364869
C        0.7221728190   -0.0041008001    0.8816998592
N       -0.4042687937    0.5543309707    0.1752976349
H        0.6852885560    0.4277542974   -1.6113838030
H       -1.0826855214    0.4580090933   -1.8239517320
H       -0.2799785474   -1.0364331834   -1.2531486962
H        0.7407442594   -1.1183502645    0.8664451054
H        0.7320295151    0.3131326499    1.9408583104
H        1.6669973189    0.3484462358    0.4254771535
H       -1.2639493022    0.8569881507    0.6012426548
10   
Scan Cycle 14/88 ; Dihedral 3-1-2-10 = 10.00, Angle 1-3-2 = 110.00 ; Iteration 13 Energy -134.52801925
C       -0.2855808050    0.0778628233   -1.2072179487
C        0.7355402893   -0.0037752786    0.9113591424
N       -0.3733515344    0.5131619378    0.1588024452
H        0.6650709241    0.4255703920   -1.6573624553
H       -1.1090895641    0.5015368312   -1.8094221188
H       -0.3194413823   -1.0309024171   -1.3241357696
H        0.7726023598   -1.1181945267    0.9407994578
H        0.7051398910    0.3561025900    1.9553314633
H        1.6903859166    0.3439318813    0.4701702873
H       -1.2354760949    0.8100057669    0.5857754963
10   
Scan Cycle 15/88 ; Dihedral 3-1-2-10 = 10.00, Angle 1-3-2 = 115.00 ; Iteration 14 Energy -134.53050394
C       -0.2994583648    0.0802361299   -1.2358273700
C        0.7492404945   -0.0037097987    0.9401584259
N       -0.3437796501    0.4682203902    0.1428189773
H        0.6468114979    0.4225493417   -1.7002740010
H       -1.1286847735    0.5503196058   -1.7926995410
H       -0.3650843350   -1.0215969218   -1.4002133013
H        0.8035223526   -1.1151414464    1.0246518346
H        0.6814919106    0.4054564765    1.9632395140
H        1.7123891519    0.3372186885    0.5107082209
H       -1.2106482841    0.7517475343    0.5715372405
10   
Scan Cycle 16/88 ; Dihedral 3-1-2-10 = 10.00, Angle 1-3-2 = 120.00 ; Iteration 14 Energy -134.53102915
C       -0.3126198028    0.0828299761   -1.2636695419
C        0.7628738834   -0.0032476833    0.9678893827
N       -0.3147237262    0.4205860506    0.1269777608
H        0.6304266271    0.4176584175   -1.7403608807
H       -1.1416020798    0.6024408697   -1.7739379356
H       -0.4161355249   -1.0079481671   -1.4769087707
H        0.8320790566   -1.1078505264    1.1129629135
H        0.6603183302    0.4581918635    1.9649533583
H        1.7333486271    0.3294155446    0.5481323183
H       -1.1881653906    0.6832236550    0.5580613951
10   
Scan Cycle 17/88 ; Dihedral 3-1-2-10 = 10.00, Angle 1-3-2 = 125.00 ; Iteration 15 Energy -134.52985148
C       -0.3251364798    0.0859152963   -1.2902868534
C        0.7759553943   -0.0022158522    0.9943938865
N       -0.2841104711    0.3734126134    0.1104043956
H        0.6133614022    0.4128147914   -1.7812942927
H       -1.1513748130    0.6518855941   -1.7526232464
H       -0.4677177123   -0.9909282872   -1.5478589079
H        0.8558442032   -1.0968664311    1.1984099694
H        0.6390741603    0.5085695551    1.9624376902
H        1.7545415474    0.3214840026    0.5865732550
H       -1.1646372311    0.6112287176    0.5439441038
10   
Scan Cycle 18/88 ; Dihedral 3-1-2-10 = 10.00, Angle 1-3-2 = 130.00 ; Iteration 16 Energy -134.52713517
C       -0.3369396130    0.0894005451   -1.3154163350
C        0.7883335969   -0.0006670813    1.0194404478
N       -0.2506396285    0.3287432245    0.0925501607
H        0.5940707775    0.4091062852   -1.8248255571
H       -1.1601564921    0.6957304336   -1.7287962259
H       -0.5173752628   -0.9722143736   -1.6097156103
H        0.8737706784   -1.0835629919    1.2767966783
H        0.6163076931    0.5535368456    1.9572410466
H        1.7764117185    0.3144755370    0.6284457716
H       -1.1379834681    0.5407515758    0.5283796235
10   
Scan Cycle 19/88 ; Dihedral 3-1-2-10 = 10.00, Angle 1-3-2 = 135.00 ; Iteration 16 Energy -134.52300191
C       -0.3480924301    0.0933899408   -1.3389082379
C        0.7998535302    0.0015072329    1.0429932444
N       -0.2142676206    0.2872408551    0.0734198677
H        0.5723686106    0.4067619780   -1.8706263750
H       -1.1683284385    0.7338541980   -1.7033873950
H       -0.5645686679   -0.9529175060   -1.6618220176
H        0.8856354077   -1.0689935186    1.3472368854
H        0.5925118689    0.5929125904    1.9502284794
H        1.7985927979    0.3086162163    0.6736984944
H       -1.1079050582    0.4729280132    0.5112670542
10   
Scan Cycle 20/88 ; Dihedral 3-1-2-10 = 10.00, Angle 1-3-2 = 140.00 ; Iteration 16 Energy -134.51756166
C       -0.3586014670    0.0982638406   -1.3605763775
C        0.8103766416    0.0046974399    1.0649657506
N       -0.1757173851    0.2480764475    0.0533300251
H        0.5498029057    0.4038263888   -1.9165799770
H       -1.1736941524    0.7697477094   -1.6775825500
H       -0.6117361159   -0.9325306703   -1.7051032908
H        0.8906553493   -1.0527839714    1.4122430660
H        0.5700883325    0.6301720778    1.9406383856
H        1.8203370367    0.3021329103    0.7196841412
H       -1.0757111453    0.4036978275    0.4930808268
10   
Scan Cycle 21/88 ; Dihedral 3-1-2-10 = 10.00, Angle 1-3-2 = 145.00 ; Iteration 16 Energy -134.51092918
C       -0.3684608293    0.1049480782   -1.3801984062
C        0.8197609440    0.0098413274    1.0852730286
N       -0.1358293591    0.2099842102    0.0326367828
H        0.5273712680    0.4004176000   -1.9609472929
H       -1.1751054083    0.8060812106   -1.6521883861
H       -0.6595584394   -0.9098485639   -1.7404674327
H        0.8891505698   -1.0338092054    1.4729873451
H        0.5504646979    0.6679641759    1.9282413509
H        1.8409114838    0.2952805657    0.7645504465
H       -1.0429049274    0.3244406014    0.4742125641
10   
Scan Cycle 22/88 ; Dihedral 3-1-2-10 = 10.00, Angle 1-3-2 = 150.00 ; Iteration 16 Energy -134.50323714
C       -0.3774366563    0.1145255600   -1.3975740042
C        0.8276397710    0.0178244275    1.1039142093
N       -0.0944165454    0.1732796166    0.0112418496
H        0.5045651091    0.3992111031   -2.0037127229
H       -1.1739730663    0.8427360226   -1.6273318449
H       -0.7057797796   -0.8845128032   -1.7675118328
H        0.8792660435   -1.0112585452    1.5293693180
H        0.5343774672    0.7080311598    1.9133819691
H        1.8602993556    0.2873708355    0.8084432031
H       -1.0087416987    0.2280926234    0.4538798557
10   
Scan Cycle 23/88 ; Dihedral 3-1-2-10 = 20.00, Angle 1-3-2 = 100.00 ; Iteration 27 Energy -134.52445364
C       -0.5363205649    0.3801032772   -0.9609393124
C        0.8014281624    0.0397477673    0.8009307622
N       -0.2337023312   -0.6473980525    0.0324801611
H        0.3478122217    0.7060429537   -1.5538287784
H       -0.9433632026    1.2648899586   -0.4443743665
H       -1.3090867234    0.0353277118   -1.6738293965
H        0.3599519423    0.9332669891    1.2721940140
H        1.6710015710    0.3694101474    0.1888705796
H        1.1889506709   -0.6002305830    1.6161034530
H       -0.1008717464   -1.6058601695   -0.2535071162
10   
Scan Cycle 24/88 ; Dihedral 3-1-2-10 = 20.00, Angle 1-3-2 = 105.00 ; Iteration 12 Energy -134.53052888
C       -0.5565038732    0.3824838536   -0.9859064686
C        0.8196393107    0.0323527385    0.8264411838
N       -0.2062315219   -0.6026317841    0.0202693629
H        0.3051451428    0.7162149320   -1.6096845629
H       -0.9713799036    1.2745488125   -0.4852257870
H       -1.3361687292   -0.0059967739   -1.6661673739
H        0.3922636106    0.9276947029    1.3104797387
H        1.7133396853    0.3578134475    0.2448134640
H        1.1664197733   -0.6426926371    1.6299378892
H       -0.0807234948   -1.5644872920   -0.2608574461
10   
Scan Cycle 25/88 ; Dihedral 3-1-2-10 = 20.00, Angle 1-3-2 = 110.00 ; Iteration 13 Energy -134.53389651
C       -0.5761040301    0.3858502055   -1.0108570818
C        0.8380676791    0.0260695310    0.8517045767
N       -0.1769976170   -0.5581941299    0.0066523152
H        0.2570053889    0.7244034869   -1.6714987669
H       -0.9989749049    1.2843207081   -0.5261970812
H       -1.3641144470   -0.0463669553   -1.6525502104
H        0.4245259932    0.9220492025    1.3488669887
H        1.7590738332    0.3424002541    0.3068937633
H        1.1384306499   -0.6830848338    1.6431737910
H       -0.0551125452   -1.5221474692   -0.2720882946
10   
Scan Cycle 26/88 ; Dihedral 3-1-2-10 = 20.00, Angle 1-3-2 = 115.00 ; Iteration 14 Energy -134.53507522
C       -0.5952133772    0.3898922572   -1.0352379917
C        0.8563261138    0.0205902946    0.8764621203
N       -0.1461135548   -0.5136592311   -0.0081914338
H        0.2043791293    0.7297261845   -1.7363518058
H       -1.0258171509    1.2939880280   -0.5665131837
H       -1.3918784081   -0.0852371818   -1.6332690796
H        0.4566759357    0.9168388775    1.3859025927
H        1.8061497753    0.3221691151    0.3731916119
H        1.1051905891   -0.7205333628    1.6554786791
H       -0.0238990521   -1.4784749811   -0.2873715094
10   
Scan Cycle 27/88 ; Dihedral 3-1-2-10 = 20.00, Angle 1-3-2 = 120.00 ; Iteration 14 Energy -134.53443938
C       -0.6136844910    0.3941183245   -1.0587907459
C        0.8739748573    0.0156297245    0.9004957452
N       -0.1149313168   -0.4682239547   -0.0230912127
H        0.1502429445    0.7314193042   -1.8001807355
H       -1.0526306366    1.3034249585   -0.6070461432
H       -1.4171138396   -0.1226094854   -1.6105819417
H        0.4888478334    0.9112383651    1.4231314311
H        1.8510385231    0.2987112735    0.4398141259
H        1.0698682172   -0.7553465952    1.6648262241
H        0.0101879084   -1.4330619151   -0.3044767472
10   
Scan Cycle 28/88 ; Dihedral 3-1-2-10 = 20.00, Angle 1-3-2 = 125.00 ; Iteration 14 Energy -134.53224074
C       -0.6313922507    0.3983205242   -1.0812289421
C        0.8907975424    0.0110462311    0.9235325943
N       -0.0849713746   -0.4210633728   -0.0367289713
H        0.0978381529    0.7298177546   -1.8594062296
H       -1.0811904173    1.3121332648   -0.6488577542
H       -1.4373993908   -0.1589543330   -1.5871580073
H        0.5216244756    0.9043468842    1.4620883578
H        1.8915172595    0.2734708290    0.5029133573
H        1.0354238913   -0.7880877615    1.6696123316
H        0.0435521117   -1.3857300206   -0.3206667364
10   
Scan Cycle 29/88 ; Dihedral 3-1-2-10 = 20.00, Angle 1-3-2 = 130.00 ; Iteration 15 Energy -134.52864962
C       -0.6482440958    0.4022788091   -1.1024130974
C        0.9066388222    0.0066868361    0.9454065257
N       -0.0570365452   -0.3719824722   -0.0484582847
H        0.0490867919    0.7253362128   -1.9126689240
H       -1.1119159613    1.3196345428   -0.6920225864
H       -1.4521095910   -0.1942041291   -1.5645155565
H        0.5548312683    0.8955819625    1.5031255641
H        1.9269009671    0.2475847181    0.5604592023
H        1.0035107378   -0.8189609806    1.6695970144
H        0.0741376060   -1.3366554996   -0.3344098576
10   
Scan Cycle 30/88 ; Dihedral 3-1-2-10 = 20.00, Angle 1-3-2 = 135.00 ; Iteration 18 Energy -134.52379215
C       -0.6649090673    0.4049099802   -1.1219279805
C        0.9216961631    0.0034921224    0.9658243108
N       -0.0305856365   -0.3213284499   -0.0582807762
H        0.0029870907    0.7168226932   -1.9606832744
H       -1.1446648757    1.3247342510   -0.7358023208
H       -1.4628420327   -0.2295905562   -1.5411369305
H        0.5881937363    0.8863618536    1.5443177753
H        1.9578455566    0.2221841456    0.6116272453
H        0.9743807850   -0.8462053561    1.6660089944
H        0.1036982805   -1.2860806838   -0.3458470434
10   
Scan Cycle 31/88 ; Dihedral 3-1-2-10 = 20.00, Angle 1-3-2 = 140.00 ; Iteration 19 Energy -134.51777383
C       -0.6808563400    0.4074279482   -1.1396259915
C        0.9351409847   -0.0002856816    0.9850840036
N       -0.0055277146   -0.2695030248   -0.0671442423
H       -0.0397133496    0.7052972728   -2.0036958826
H       -1.1765299554    1.3291303198   -0.7786204972
H       -1.4711017896   -0.2617980420   -1.5169007055
H        0.6211425346    0.8756681677    1.5848015123
H        1.9846254154    0.1944555224    0.6578768742
H        0.9451724059   -0.8713881750    1.6601906098
H        0.1334478087   -1.2337043075   -0.3578656809
10   
Scan Cycle 32/88 ; Dihedral 3-1-2-10 = 20.00, Angle 1-3-2 = 145.00 ; Iteration 15 Energy -134.51069457
C       -0.6957231814    0.4090976016   -1.1559009808
C        0.9459198805   -0.0044027800    1.0037882385
N        0.0185813270   -0.2169437356   -0.0754137135
H       -0.0792210950    0.6848337332   -2.0444090759
H       -1.2013548870    1.3356269857   -0.8219765025
H       -1.4816239300   -0.2884264225   -1.4884544394
H        0.6483352827    0.8604657730    1.6276166737
H        2.0057947181    0.1705794237    0.7009095471
H        0.9184170521   -0.8964745696    1.6503106868
H        0.1666748329   -1.1790560095   -0.3723704340
10   
Scan Cycle 33/88 ; Dihedral 3-1-2-10 = 20.00, Angle 1-3-2 = 150.00 ; Iteration 18 Energy -134.50266566
C       -0.7111368334    0.4104105716   -1.1687920344
C        0.9543449184   -0.0100793654    1.0213832434
N        0.0423050557   -0.1640876065   -0.0833376660
H       -0.1160033474    0.6710711891   -2.0756182759
H       -1.2341971387    1.3356424741   -0.8590161563
H       -1.4857341593   -0.3161813547   -1.4641635003
H        0.6810045423    0.8515536824    1.6605064452
H        2.0242805862    0.1313394048    0.7390491439
H        0.8816804981   -0.9141071941    1.6479812395
H        0.2092558781   -1.1202618012   -0.3938924392
10   
Scan Cycle 34/88 ; Dihedral 3-1-2-10 = 30.00, Angle 1-3-2 = 100.00 ; Iteration 22 Energy -134.53009446
C       -0.6467187204    0.2831447855   -0.9049852912
C        0.7071251850   -0.1123091598    0.8540924127
N        0.5636294132   -0.4811360339   -0.5633167554
H       -0.8859443276    0.1785520473   -1.9795051797
H       -0.5730915289    1.3678893548   -0.6735198939
H       -1.4974050390   -0.1303462779   -0.3395642369
H        0.7396524879    0.9845428165    1.0317935664
H        1.6249323643   -0.5552730403    1.2832138205
H       -0.1471658935   -0.5245303953    1.4149692580
H        1.3607860590   -0.1352340970   -1.0990777005
10   
Scan Cycle 35/88 ; Dihedral 3-1-2-10 = 30.00, Angle 1-3-2 = 105.00 ; Iteration 13 Energy -134.53492365
C       -0.6644710677    0.2888197194   -0.9307741255
C        0.7273870424   -0.1179946599    0.8779476671
N        0.5348030897   -0.4447648562   -0.5330013301
H       -0.8603796213    0.1526969125   -2.0093458222
H       -0.6139250727    1.3812253050   -0.7216752859
H       -1.5309343145   -0.1191124470   -0.3831177095
H        0.7752031590    0.9750514530    1.0843232470
H        1.6548466101   -0.5818513175    1.2585794870
H       -0.1131091286   -0.5339450565    1.4590252247
H        1.3363793035   -0.1248250528   -1.0778613525
10   
Scan Cycle 36/88 ; Dihedral 3-1-2-10 = 30.00, Angle 1-3-2 = 110.00 ; Iteration 13 Energy -134.53714385
C       -0.6827968072    0.2949383864   -0.9556254565
C        0.7469892769   -0.1227695740    0.9021571279
N        0.5065525190   -0.4071417177   -0.5027818337
H       -0.8336935474    0.1243972754   -2.0356412816
H       -0.6574247562    1.3945992707   -0.7753874105
H       -1.5648011764   -0.1087679166   -0.4281795896
H        0.8171664809    0.9638833048    1.1401561728
H        1.6806844920   -0.6105025634    1.2317310418
H       -0.0784249824   -0.5427712020    1.5033209188
H        1.3115485010   -0.1105652637   -1.0556496894
10   
Scan Cycle 37/88 ; Dihedral 3-1-2-10 = 30.00, Angle 1-3-2 = 115.00 ; Iteration 13 Energy -134.53725744
C       -0.7010884529    0.3014286163   -0.9796354156
C        0.7656806976   -0.1271766182    0.9263097020
N        0.4789620375   -0.3678799557   -0.4727276141
H       -0.8074074791    0.0928949234   -2.0576174019
H       -0.7010454997    1.4074709318   -0.8352784318
H       -1.5974852594   -0.0979971467   -0.4721948504
H        0.8633356473    0.9503080761    1.1977117459
H        1.7021232284   -0.6402682412    1.2031615441
H       -0.0438968061   -0.5520790813    1.5464766535
H        1.2866218862   -0.0914015046   -1.0321059317
10   
Scan Cycle 38/88 ; Dihedral 3-1-2-10 = 30.00, Angle 1-3-2 = 120.00 ; Iteration 14 Energy -134.53564310
C       -0.7190327818    0.3078203176   -1.0026144263
C        0.7835773359   -0.1312224309    0.9498599423
N        0.4515973063   -0.3274458114   -0.4425728948
H       -0.7810038916    0.0603577763   -2.0752964079
H       -0.7436032332    1.4185387549   -0.8978952159
H       -1.6288334487   -0.0880190393   -0.5155673032
H        0.9126615280    0.9346113131    1.2541636927
H        1.7191299500   -0.6701992602    1.1734003583
H       -0.0099626403   -0.5609939438    1.5880068251
H        1.2612698754   -0.0681476762   -1.0073845703
10   
Scan Cycle 39/88 ; Dihedral 3-1-2-10 = 30.00, Angle 1-3-2 = 125.00 ; Iteration 14 Energy -134.53257045
C       -0.7362612991    0.3139513885   -1.0245028336
C        0.8005611929   -0.1350992357    0.9724411670
N        0.4238299303   -0.2866381655   -0.4120279883
H       -0.7543342365    0.0282392176   -2.0888880224
H       -0.7832079787    1.4273562175   -0.9610100194
H       -1.6588482648   -0.0785845847   -0.5584478220
H        0.9625326102    0.9172569652    1.3074299684
H        1.7325631310   -0.6983981368    1.1425611600
H        0.0238480075   -0.5702735348    1.6280313901
H        1.2351169072   -0.0425101312   -0.9814869999
10   
Scan Cycle 40/88 ; Dihedral 3-1-2-10 = 30.00, Angle 1-3-2 = 130.00 ; Iteration 14 Energy -134.52822838
C       -0.7525307635    0.3196119519   -1.0452052343
C        0.8166145309   -0.1388791738    0.9937336469
N        0.3952006699   -0.2461562310   -0.3808918467
H       -0.7272001455   -0.0022093044   -2.0987667409
H       -0.8188318759    1.4337646086   -1.0224814950
H       -1.6875396115   -0.0699215451   -0.6012175581
H        1.0115652042    0.8989395076    1.3559144240
H        1.7429622478   -0.7239782813    1.1109572592
H        0.0577318735   -0.5798689328    1.6665843184
H        1.2078278700   -0.0160025997   -0.9545267735
10   
Scan Cycle 41/88 ; Dihedral 3-1-2-10 = 30.00, Angle 1-3-2 = 135.00 ; Iteration 14 Energy -134.52275536
C       -0.7676441498    0.3245923088   -1.0647001506
C        0.8317112764   -0.1427274797    1.0134956351
N        0.3657042183   -0.2061909297   -0.3492049013
H       -0.6999814042   -0.0309219543   -2.1052376928
H       -0.8499402917    1.4378300867   -1.0815449705
H       -1.7146177296   -0.0620522240   -0.6435417931
H        1.0590683538    0.8800312019    1.3990190922
H        1.7505739472   -0.7469521741    1.0789999058
H        0.0914933474   -0.5897876089    1.7033087201
H        1.1794324324    0.0114787734   -0.9264938449
10   
Scan Cycle 42/88 ; Dihedral 3-1-2-10 = 30.00, Angle 1-3-2 = 140.00 ; Iteration 14 Energy -134.51626352
C       -0.7814500701    0.3286336457   -1.0829926291
C        0.8458500909   -0.1468506879    1.0315136222
N        0.3355290741   -0.1667197561   -0.3171065912
H       -0.6732764976   -0.0584578119   -2.1085749314
H       -0.8762474088    1.4395772410   -1.1380917080
H       -1.7397803269   -0.0549157269   -0.6848015605
H        1.1050830277    0.8606485346    1.4364353111
H        1.7553462619   -0.7680851937    1.0471688307
H        0.1246316978   -0.5996799368    1.7378087243
H        1.1501141511    0.0411496921   -0.8972590679
10   
Scan Cycle 43/88 ; Dihedral 3-1-2-10 = 30.00, Angle 1-3-2 = 145.00 ; Iteration 14 Energy -134.50885596
C       -0.7938102004    0.3314134951   -1.1000980171
C        0.8590134722   -0.1515290487    1.0475738863
N        0.3048670551   -0.1277408494   -0.2847443440
H       -0.6476767605   -0.0855877649   -2.1090839454
H       -0.8974412607    1.4389229549   -1.1921567492
H       -1.7628460323   -0.0484060979   -0.7244292475
H        1.1496815359    0.8407687344    1.4678696764
H        1.7572514081   -0.7882871062    1.0158668322
H        0.1566974711   -0.6092842551    1.7698154772
H        1.1200633114    0.0750299378   -0.8665135689
10   
Scan Cycle 44/88 ; Dihedral 3-1-2-10 = 30.00, Angle 1-3-2 = 150.00 ; Iteration 18 Energy -134.50064017
C       -0.8047293936    0.3328932218   -1.1158266936
C        0.8713580939   -0.1575013643    1.0612491262
N        0.2737429187   -0.0894477750   -0.2522952999
H       -0.6241192270   -0.1124785878   -2.1071144622
H       -0.9130955862    1.4360790991   -1.2431798145
H       -1.7839296043   -0.0420240677   -0.7617902959
H        1.1931291976    0.8198016454    1.4929053373
H        1.7565513584   -0.8088337787    0.9849521134
H        0.1877105964   -0.6190506531    1.7990399464
H        1.0891816460    0.1158622604   -0.8338399572
10   
Scan Cycle 45/88 ; Dihedral 3-1-2-10 = 40.00, Angle 1-3-2 = 100.00 ; Iteration 22 Energy -134.52443973
C       -0.5968348837    0.1869277347   -0.9734360740
C        0.8224467415   -0.2343116974    0.7431236037
N        0.7624271513    0.5460806777   -0.5124213428
H       -0.6132640400   -0.8733346315   -1.2788391626
H       -0.8686301022    0.7866365672   -1.8611536388
H       -1.3814145846    0.3334878050   -0.2026533826
H        1.7451989679    0.0107444024    1.2999520769
H        0.8616133996   -1.3111386851    0.5051795103
H       -0.0437128459   -0.0633580766    1.4152138733
H        0.5579701961    1.4935659037   -0.1108654634
10   
Scan Cycle 46/88 ; Dihedral 3-1-2-10 = 40.00, Angle 1-3-2 = 105.00 ; Iteration 14 Energy -134.52973139
C       -0.6185130866    0.1931755465   -0.9965452999
C        0.8411545677   -0.2400908717    0.7688118288
N        0.7250551654    0.5065495627   -0.4912491905
H       -0.6531729601   -0.8587475603   -1.3307524394
H       -0.8465237896    0.8255523711   -1.8724248945
H       -1.4217830844    0.3352752228   -0.2415582331
H        1.7696221391    0.0490591059    1.2916832324
H        0.9058485919   -1.3214778677    0.5546738531
H       -0.0151918161   -0.0823017883    1.4596189762
H        0.5593042728    1.4683062790   -0.1181578332
10   
Scan Cycle 47/88 ; Dihedral 3-1-2-10 = 40.00, Angle 1-3-2 = 110.00 ; Iteration 15 Energy -134.53231459
C       -0.6405111291    0.1987514843   -1.0190059053