48   
Iteration 0 Energy -1329.36851271
H        4.1933210000    6.9754300000   -1.6206110000
C        3.2013860000    6.6579010000   -1.9246900000
H        2.5534440000    7.5079470000   -2.1112870000
H        2.7288480000    6.0495630000   -1.1605840000
O        3.3526980000    5.9112070000   -3.0980420000
C        2.0681970000    5.4304370000   -3.5985600000
H        1.4127150000    6.2750140000   -3.8160770000
O        1.3872450000    4.5699730000   -2.6264170000
C        0.0841770000    3.9968410000   -3.0831000000
H       -0.5942830000    4.8228550000   -3.3063830000
C       -0.5265990000    3.1522530000   -1.9480650000
H        0.1240080000    2.3082680000   -1.7142270000
H       -1.5015940000    2.7630990000   -2.2413990000
O       -0.6842490000    3.9620040000   -0.7677890000
H        0.1626130000    4.3725460000   -0.5684830000
C        0.2858980000    3.1758840000   -4.2796490000
H        0.8837140000    2.2993420000   -4.0212810000
C        1.0028290000    3.9762600000   -5.3939710000
H        0.3379330000    4.7652660000   -5.7515260000
O        1.2937510000    3.0804870000   -6.5017040000
H        1.8105290000    3.5795160000   -7.1490060000
C        2.3191060000    4.6143660000   -4.8967180000
H        3.0486930000    3.8280100000   -4.6922390000
O        2.8481670000    5.4841830000   -5.9404020000
H        3.6312980000    5.9288990000   -5.5909890000
O       -1.0029700000    2.7328370000   -4.7687640000
C       -0.8688300000    1.9067440000   -5.9650820000
H       -0.2682710000    1.0233700000   -5.7431370000
O       -0.2171350000    2.6315740000   -7.0641160000
C       -0.1479370000    1.9130140000   -8.3732790000
H        0.4430460000    1.0060260000   -8.2298410000
C        0.5734310000    2.7906400000   -9.4115090000
H        0.0699880000    3.7519490000   -9.5242550000
H        0.5910900000    2.2932350000  -10.3812390000
O        1.9250530000    3.0142520000   -8.9778200000
H        1.8912680000    3.4351960000   -8.1145790000
C       -1.4503940000    1.5469190000   -8.8528020000
H       -1.3479720000    0.9469220000   -9.7582270000
O       -2.2056790000    2.7402430000   -9.1770270000
H       -3.1071480000    2.4593720000   -9.3857240000
C       -2.2068490000    0.7283240000   -7.7814510000
H       -1.6710230000   -0.2112950000   -7.6315460000
O       -3.5359390000    0.4061010000   -8.2781580000
H       -4.0035950000   -0.0616460000   -7.5727510000
C       -2.2913000000    1.4718940000   -6.4275010000
H       -2.9285630000    2.3527120000   -6.5300590000
O       -2.8820620000    0.5769020000   -5.4382220000
H       -2.8649690000    1.0289240000   -4.5858090000
48   
Iteration 1 Energy -1329.45247793
H        4.0340909390    7.0602535929   -1.4675018376
C        3.0887110620    6.7037548060   -1.8611332754
H        2.4191582332    7.5255137698   -2.0808991013
H        2.5874530585    6.0572506066   -1.1500480843
O        3.3499859079    5.9776290424   -3.0270794219
C        2.0989086570    5.4692161364   -3.5729765736
H        1.4299677855    6.2953011566   -3.8117553758
O        1.4101878896    4.6039644507   -2.6106049068
C        0.1332839224    3.9971992209   -3.0967643334
H       -0.5601544241    4.8021655519   -3.3547224130
C       -0.4742238257    3.1502071122   -1.9594458385
H        0.2112003373    2.3349090950   -1.7103726793
H       -1.4205728319    2.7237867044   -2.2746585003
O       -0.7218429183    3.9392572478   -0.7742797539
H        0.0742363009    4.4041224314   -0.5174842695
C        0.3862461972    3.1684607027   -4.2780465643
H        0.9927334835    2.3119420648   -3.9983845593
C        1.1162104284    3.9728488128   -5.3809739440
H        0.4496955496    4.7377940673   -5.7637403051
O        1.4445597266    3.0640491517   -6.4733792490
H        1.9505793175    3.5312109753   -7.1539894386
C        2.4038096830    4.6452157680   -4.8547623381
H        3.1488228689    3.8846377581   -4.6072789964
O        2.9174928706    5.4960305104   -5.9241708615
H        3.6780702075    5.9882815908   -5.6137554384
O       -0.9111724604    2.7034556835   -4.7987642831
C       -0.8566769200    1.8696779469   -6.0081290578
H       -0.2804978654    0.9650292760   -5.8177578740
O       -0.2225473162    2.5874934827   -7.1219430019
C       -0.2120512389    1.8780649096   -8.4378421674
H        0.3435337715    0.9558282290   -8.3221684129
C        0.5474844038    2.7529621500   -9.4575052924
H        0.0863859215    3.7345421657   -9.5540622665
H        0.5392853850    2.2702071824  -10.4399642228
O        1.9312730356    2.9199577876   -9.0243256486
H        1.9727946990    3.3431234705   -8.1412985924
C       -1.5370017402    1.5472365924   -8.8786184348
H       -1.4796101936    0.9492706767   -9.7900335763
O       -2.2665542011    2.7549096016   -9.1703723949
H       -3.1772529025    2.4926109355   -9.3506034289
C       -2.2792636038    0.7383236309   -7.7900211366
H       -1.7646317467   -0.2165099102   -7.6645122421
O       -3.6301355751    0.4609771331   -8.2356837218
H       -4.0739717080    0.0045619107   -7.5089438795
C       -2.3033545777    1.4726996640   -6.4287190430
H       -2.9152218604    2.3719912365   -6.5032850140
O       -2.8923419696    0.5746402651   -5.4391881054
H       -2.8499967636    0.9957036512   -4.5741471456
48   
Iteration 2 Energy -1329.52834623
H        4.1275504395    7.1201495781   -1.5321824168
C        3.1407115121    6.7810137908   -1.8143436234
H        2.4875052031    7.6286670977   -1.9954929204
H        2.6961588325    6.2046569719   -1.0189273897
O        3.2877009054    6.0027726726   -2.9815976920
C        2.0755585869    5.4634110437   -3.5152930189
H        1.4025943903    6.2842804183   -3.7646537490
O        1.3604632279    4.5840066168   -2.5855390291
C        0.1168319829    3.9564648859   -3.1283075820
H       -0.5774693884    4.7560824687   -3.4084514714
C       -0.5366612209    3.1562939409   -1.9970901958
H        0.1158921362    2.3395968129   -1.6813706405
H       -1.4702395174    2.7240105053   -2.3347494848
O       -0.8074003652    3.9934914456   -0.9067628081
H        0.0079761035    4.4316100203   -0.6937286272
C        0.4356789477    3.1352935134   -4.2988777628
H        1.0341654779    2.2757380437   -3.9970781550
C        1.1991641658    3.9549188615   -5.3673386375
H        0.5234105038    4.6944952624   -5.7726599918
O        1.5721395678    3.0791971409   -6.4411441593
H        2.0442620284    3.5351277203   -7.1372685217
C        2.4506358070    4.6481194048   -4.7839665871
H        3.2098900095    3.9181115709   -4.5113151442
O        2.9716939828    5.4966327491   -5.8139318241
H        3.6993351022    5.9956996086   -5.4527807144
O       -0.8376143389    2.6480842445   -4.8371851624
C       -0.8295580943    1.8445908410   -6.0432969269
H       -0.2435920524    0.9419082099   -5.8703282771
O       -0.2372453606    2.5723865369   -7.1735358621
C       -0.2729476640    1.8732824872   -8.4945218087
H        0.2915856672    0.9429835120   -8.4009844918
C        0.5026933986    2.7609866732   -9.4797332002
H        0.0544477195    3.7434997922   -9.5628018071
H        0.4788055669    2.2985448459  -10.4743252716
O        1.8805836577    2.8968096155   -9.0946017891
H        1.9818827307    3.3006885362   -8.2192522668
C       -1.6123970826    1.5432068945   -8.8896720399
H       -1.5851479492    0.9490390228   -9.8121487326
O       -2.3209998888    2.7445159215   -9.1623293801
H       -3.2276383476    2.5109454998   -9.3169653788
C       -2.3134747580    0.7242819369   -7.7815348679
H       -1.8028470090   -0.2292684648   -7.6789091344
O       -3.6562801970    0.4550972831   -8.1921874605
H       -4.0792514649   -0.0065674696   -7.4678056655
C       -2.2897940479    1.4479083237   -6.4144006052
H       -2.9000564685    2.3535715523   -6.4532033875
O       -2.8481553676    0.5478696470   -5.4415693878
H       -2.7834620592    0.9475524480   -4.5799519121
48   
Iteration 3 Energy -1329.56611162
H        3.7879369898    7.1470508723   -1.3105399729
C        2.8954687574    6.7739226807   -1.7898732944
H        2.2453452767    7.5951239116   -2.0674430382
H        2.3472721063    6.1278921358   -1.1210903773
O        3.2593463355    6.0346898741   -2.9119812155
C        2.1296807556    5.5073665760   -3.5150436259
H        1.4626453722    6.3174627451   -3.7824854745
O        1.3937292571    4.6331382434   -2.5967537946
C        0.1843222113    3.9719385981   -3.1756964745
H       -0.5161586556    4.7395363588   -3.4995491536
C       -0.4552952239    3.1704175900   -2.0376542222
H        0.2565294118    2.4046209655   -1.7434979539
H       -1.3531933482    2.6923716100   -2.4060808789
O       -0.8494717424    3.9313701366   -0.9042679282
H       -0.1294817631    4.4582949995   -0.5776454431
C        0.5646148659    3.1340292695   -4.3156571992
H        1.1540883559    2.2883624519   -3.9795344029
C        1.3555752382    3.9466398389   -5.3693881117
H        0.6910833927    4.6692988586   -5.8195645854
O        1.7618533782    3.0462278866   -6.3733880451
H        2.2217749453    3.4673664189   -7.0877035543
C        2.5699699053    4.6744831781   -4.7509104109
H        3.3265389719    3.9783810720   -4.4141108851
O        3.0930350251    5.4658105579   -5.8194423433
H        3.7984364082    6.0167181685   -5.5302794551
O       -0.6977765718    2.6159374828   -4.8915583457
C       -0.7816583715    1.8135744990   -6.0796073257
H       -0.2251163979    0.8985497366   -5.9390104369
O       -0.2214727314    2.5337214643   -7.2309289129
C       -0.3415242085    1.8486224361   -8.5542776820
H        0.1875212470    0.9056905706   -8.5077407173
C        0.4648511612    2.7347260054   -9.5060366547
H        0.0495894092    3.7263966389   -9.5421779837
H        0.4162410858    2.3113553712  -10.5158284988
O        1.8566580954    2.7899362171   -9.1393932825
H        2.0355204768    3.1632981732   -8.2554737513
C       -1.7078365627    1.5634632934   -8.8875940694
H       -1.7404145690    0.9839146101   -9.8144303708
O       -2.3978443426    2.7732651333   -9.1185466662
H       -3.3211691252    2.5745807767   -9.2344027909
C       -2.3805938578    0.7558872154   -7.7538687024
H       -1.8941581458   -0.2229326712   -7.6774782514
O       -3.7330659834    0.5550891074   -8.1101335747
H       -4.1621280730    0.1132449041   -7.3886560884
C       -2.2695027116    1.4653818390   -6.3836551699
H       -2.8392386721    2.3855607596   -6.3824826562
O       -2.8318764518    0.5699516567   -5.4197955577
H       -2.7435658888    0.9200298520   -4.5434376825
48   
Iteration 4 Energy -1329.59802048
H        4.0029554153    7.2828022385   -1.4856986517
C        3.0124579986    6.9213170309   -1.7486020525
H        2.3976787611    7.7828317046   -1.9949028972
H        2.5816106787    6.4412448124   -0.8882131389
O        3.1438841069    6.0332343306   -2.8565105721
C        2.0605334851    5.4267097654   -3.4826362502
H        1.3999314308    6.2158682388   -3.8329942247
O        1.2673957506    4.5601584962   -2.6056086364
C        0.1204538003    3.8629286424   -3.2639548239
H       -0.5491874181    4.6273876685   -3.6491114966
C       -0.6197169921    3.1791906294   -2.1256158267
H        0.0000695908    2.3976061696   -1.6634595437
H       -1.5140506561    2.7057924409   -2.4912193747
O       -0.9850295602    4.1714387194   -1.2240139207
H       -0.1947218375    4.6513518588   -1.0036173742
C        0.6063060578    3.0062486766   -4.3485155763
H        1.1604992947    2.1658364416   -3.9841844762
C        1.4663503172    3.8090914333   -5.3545331626
H        0.8043366144    4.4835538013   -5.8426545590
O        2.0050012312    2.9433910891   -6.3051255756
H        2.4042727827    3.4094786115   -7.0368452209
C        2.6138984216    4.5739603694   -4.6580177718
H        3.3908354931    3.9116516559   -4.2702158504
O        3.1564800971    5.4017745547   -5.6446775144
H        3.7934531738    5.9723361029   -5.2461826482
O       -0.6349231875    2.5050627782   -4.9340340516
C       -0.7309640802    1.7743377852   -6.0955053287
H       -0.1168532603    0.8874648111   -5.9913813175
O       -0.2414389315    2.5605417122   -7.2357726294
C       -0.4027119257    1.9322800352   -8.5827333904
H        0.1658247580    1.0004456708   -8.6073905802
C        0.3576357866    2.8500693978   -9.5049245054
H       -0.0815221625    3.8507791110   -9.4778883875
H        0.2860017754    2.4988920976  -10.5131319754
O        1.7205174926    2.8071258287   -9.1836167896
H        1.9724631803    3.0843774197   -8.3165776045
C       -1.7747233718    1.6244485588   -8.8691760179
H       -1.8290353406    1.0772345869   -9.8163459025
O       -2.4739984162    2.8318560975   -9.0276575023
H       -3.4014012924    2.6520149080   -9.1263270414
C       -2.3752387241    0.7486335012   -7.7455901066
H       -1.8691131446   -0.2011978912   -7.7453217742
O       -3.7330756846    0.5337446067   -8.0705353435
H       -4.1620993746    0.0325588832   -7.3780678169
C       -2.2214273216    1.3989278616   -6.3503596419
H       -2.8230564944    2.3036071631   -6.2873551312
O       -2.6840293683    0.4737226694   -5.3950333254
H       -2.5554439053    0.8076469011   -4.5142597917
48   
Iteration 5 Energy -1329.55128829
H        4.0159980040    7.0369691396   -1.6256154678
C        2.9632797684    6.8777340610   -1.7591853820
H        2.4313977494    7.7575834318   -2.0818614826
H        2.5183221550    6.4619252985   -0.8324136841
O        3.0677391200    5.9277883083   -2.7486416354
C        2.0217441350    5.5383915281   -3.4606028374
H        1.4200672911    6.3656999946   -3.7661495881
O        1.2243449866    4.6442998301   -2.6156705124
C        0.1063692328    3.9364455886   -3.3114417303
H       -0.5483786716    4.7020058799   -3.7136429141
C       -0.7372238156    3.1718335722   -2.3096195634
H       -0.1350138313    2.3426798256   -1.9148801858
H       -1.5885871795    2.7181389602   -2.8058533819
O       -1.0928385057    3.8916320528   -1.2226173874
H       -0.2277064362    4.1891149145   -0.9274193009
C        0.6334599806    3.1053668460   -4.3966645041
H        1.2444990866    2.2391054583   -3.9651649523
C        1.5019521100    3.9389574915   -5.3698818786
H        0.7565591747    4.5252908608   -5.9212296346
O        2.2611755639    3.0326377993   -6.1235585424
H        2.4483356677    3.4912727747   -6.9192113799
C        2.6183858006    4.7138533572   -4.6349415994
H        3.3400331066    4.1016493882   -4.3293316421
O        3.2872713451    5.6467734944   -5.5404879352
H        3.9891304358    6.0504123142   -4.9811849681
O       -0.4836033647    2.5362386854   -4.9616089171
C       -0.6119717449    1.7344958152   -6.1151218992
H       -0.0545254340    0.7947974816   -6.0115262111
O       -0.1488615899    2.4611694103   -7.3048426524
C       -0.4270493477    1.8089035932   -8.6209679793
H        0.0437017830    0.8660734555   -8.5852380877
C        0.3200346506    2.8870783569   -9.5710820327
H        0.0310259700    3.9041596578   -9.6031357857
H        0.2810610222    2.5290335187  -10.6419184254
O        1.6564915068    2.6806246180   -9.2941100590
H        1.7489911830    2.9566321611   -8.4005026247
C       -1.8291735669    1.5743720942   -8.8165891712
H       -1.9185455932    0.9040541073   -9.7148136972
O       -2.5457146718    2.7210148158   -9.1145168637
H       -3.4690406336    2.5452194961   -9.1501340759
C       -2.4089730749    0.7643072358   -7.6343271627
H       -1.9030135786   -0.2131122720   -7.5285399622
O       -3.7154867022    0.5635396170   -7.9373999808
H       -4.1199279718    0.1497636440   -7.1806536868
C       -2.1340489514    1.4402454152   -6.2702401766
H       -2.6764129919    2.4205823610   -6.2042067401
O       -2.6711240514    0.5822867496   -5.3399634828
H       -2.5670641583    0.9527172258   -4.4973851574
48   
Iteration 6 Energy -1329.60783827
H        3.9516566669    7.1383390901   -1.5073342067
C        2.9349130245    6.8779264060   -1.7595949536
H        2.3724532126    7.7620287841   -2.0553038516
H        2.4463689621    6.3927199722   -0.9122862497
O        3.1140789841    6.0029924943   -2.8227683387
C        2.0574172975    5.4934931442   -3.4885731333
H        1.4201784484    6.3091146408   -3.8287280155
O        1.2632902747    4.6223025967   -2.6170541710
C        0.1258203207    3.9174013031   -3.2836134489
H       -0.5357203687    4.6752148233   -3.6659266974
C       -0.6368816727    3.1778597615   -2.1946257050
H       -0.0108942485    2.3911574837   -1.7944468118
H       -1.5231608860    2.7100626387   -2.6229647932
O       -1.0281649682    3.9977467251   -1.1645526960
H       -0.2125960523    4.4172250032   -0.9001882334
C        0.6252885882    3.0633219494   -4.3640323071
H        1.2016801220    2.1992477503   -3.9665763742
C        1.4876899954    3.8711786444   -5.3639999937
H        0.7785442011    4.5326804269   -5.8812668919
O        2.1057492121    2.9736156142   -6.2352715472
H        2.4457048040    3.4401492533   -6.9717141511
C        2.6250515125    4.6437324523   -4.6593054533
H        3.3681098284    3.9840486146   -4.2975130876
O        3.2368019625    5.5006189191   -5.6180792197
H        3.9001003230    6.0287007783   -5.1506854652
O       -0.5623270284    2.5343533538   -4.9421044535
C       -0.6819088227    1.7600077129   -6.0993119468
H       -0.0967482947    0.8512059576   -5.9991231151
O       -0.1990879882    2.5105357940   -7.2661678255
C       -0.4141924269    1.8635277731   -8.5966322942
H        0.1094303208    0.9137421282   -8.5863960452
C        0.3554016375    2.8508465522   -9.5388232795
H       -0.0296901163    3.8564661926   -9.5239479838
H        0.2898956840    2.5069819422  -10.5894020015
O        1.7196323368    2.7612425188   -9.2653714828
H        1.8907826066    3.0367991654   -8.3839985790
C       -1.8018010754    1.5923963692   -8.8421012359
H       -1.8760549362    0.9969971215   -9.7741203532
O       -2.4961886252    2.7784431686   -9.0596466613
H       -3.4175078745    2.5883394016   -9.1334498963
C       -2.3986253700    0.7553735002   -7.6874110267
H       -1.9050815145   -0.2146997138   -7.6324043023
O       -3.7357376121    0.5824557964   -8.0131945228
H       -4.1645715845    0.1290892768   -7.3001681757
C       -2.1890678035    1.4254936066   -6.3089213926
H       -2.7486597474    2.3672811907   -6.2363778844
O       -2.6905611597    0.5278500376   -5.3653536443
H       -2.5537251342    0.8741516390   -4.5052631175
48   
Iteration 7 Energy -1329.62117733
H        3.7434540029    7.2510726422   -1.3810814847
C        2.8064019091    6.8979336781   -1.7809424753
H        2.2303043392    7.7405355977   -2.1505518937
H        2.2507602666    6.3870306820   -1.0088017570
O        3.1347991502    6.0052818468   -2.8080746977
C        2.0958626867    5.4686806333   -3.5114837535
H        1.4650002398    6.2611259431   -3.8943786208
O        1.2730598406    4.6240267477   -2.6404434043
C        0.1530638943    3.9045954856   -3.3209231903
H       -0.4992789234    4.6598660903   -3.7572182307
C       -0.6082509813    3.1955753134   -2.2145534813
H        0.0359222863    2.4299929907   -1.7884942462
H       -1.4729949202    2.7106398039   -2.6448865613
O       -1.0753981726    4.0467650378   -1.2074263223
H       -0.3359597681    4.5421212993   -0.8829284401
C        0.6809193144    3.0198094117   -4.3624351965
H        1.2246061669    2.1675674956   -3.9566648389
C        1.5755140057    3.7974366015   -5.3580758407
H        0.9231946348    4.4569294634   -5.9025511750
O        2.2074018908    2.8641287017   -6.2012701382
H        2.5417807889    3.3764371649   -6.9288610828
C        2.6945342246    4.5855375875   -4.6413362883
H        3.4442788252    3.9364943560   -4.2158118007
O        3.3087643375    5.3831475965   -5.6439267189
H        3.9572739593    5.9468475805   -5.2415733888
O       -0.5314643691    2.5129572305   -4.9572079949
C       -0.6540469455    1.7432591283   -6.1088752642
H       -0.0633343652    0.8431758039   -6.0336697057
O       -0.1910717609    2.5219615918   -7.2652650998
C       -0.4337637592    1.9098022614   -8.6074225229
H        0.0937126032    0.9569926493   -8.6592359175
C        0.3104542503    2.8696911152   -9.5201503987
H       -0.0952433406    3.8657038587   -9.4223795976
H        0.2064823670    2.5717095601  -10.5666802927
O        1.6906247733    2.7895121074   -9.2703279186
H        1.8863318974    3.0193776399   -8.3664180373
C       -1.8267235287    1.6490680179   -8.8330455163
H       -1.9229318836    1.1025299189   -9.7689162456
O       -2.5303508290    2.8612406379   -8.9830220087
H       -3.4586616699    2.6714302670   -9.0449249415
C       -2.4042085864    0.7845427568   -7.6888326509
H       -1.9133170605   -0.1886563754   -7.6939112985
O       -3.7664928848    0.6301165681   -7.9722717997
H       -4.1791431581    0.1578710149   -7.2601427109
C       -2.1660644601    1.4185948944   -6.2979788619
H       -2.7215076907    2.3457513948   -6.1987029178
O       -2.6506477015    0.4820977761   -5.3486715960
H       -2.5165608740    0.7934502015   -4.4633486422
48   
Iteration 8 Energy -1329.59801648
H        3.3504673910    7.3424728158   -1.1867679400
C        2.5942151256    6.8088969992   -1.7539715111
H        2.0062967401    7.5096903144   -2.3436938376
H        1.9546783870    6.2463929974   -1.0759674247
O        3.1837960559    5.9594968903   -2.6811632680
C        2.1711531826    5.4367649988   -3.4528145112
H        1.5890292923    6.2420281039   -3.8639532301
O        1.3344738264    4.5795763301   -2.6076214912
C        0.2002744778    3.9031667430   -3.3083974242
H       -0.4224402085    4.6355816210   -3.7062227056
C       -0.5112343268    3.1357734337   -2.2037290726
H        0.0410144602    2.3760159574   -1.7518137292
H       -1.4513783432    2.8032738159   -2.6130850357
O       -0.8973593006    4.1543459252   -1.2758181531
H       -0.0948544110    4.5761393751   -0.9814429397
C        0.7099842049    3.0430271316   -4.3791825768
H        1.2592254158    2.1673985270   -4.0661591418
C        1.6169962721    3.8359528037   -5.3512432687
H        0.9602399481    4.5927063574   -5.8625684019
O        2.1872165244    2.9471888847   -6.2571073592
H        2.6672780553    3.3225413922   -6.9483943122
C        2.7515445863    4.5798291530   -4.6120050799
H        3.5099879285    3.8570142656   -4.2335217804
O        3.3433213087    5.4084275767   -5.5707994330
H        4.0236363586    5.9343458243   -5.1714351322
O       -0.5450227140    2.5915269994   -4.9738467691
C       -0.6948852700    1.8309378676   -6.1161689105
H       -0.0761862222    0.9591671075   -6.0209760639
O       -0.2500822059    2.5968062119   -7.2881573547
C       -0.4770205418    1.9516619191   -8.6175605416
H        0.1194599491    0.9897678789   -8.6217467951
C        0.2831216101    2.8067670717   -9.6003325489
H       -0.0706289057    3.8570433884   -9.5114368237
H        0.1428355325    2.4732095766  -10.5859572054
O        1.6540518055    2.7833400089   -9.3287566392
H        1.7935371663    2.9623967860   -8.4342292353
C       -1.8631250035    1.6527894408   -8.8380478722
H       -1.9062951818    1.0451104941   -9.7355495126
O       -2.5371557736    2.8290611024   -9.0283773212
H       -3.4362200574    2.5737672657   -9.0994766427
C       -2.4203230206    0.7981253172   -7.6764990761
H       -1.9224241920   -0.1343172467   -7.7223011007
O       -3.8192748549    0.5808153285   -7.8658567402
H       -4.1579953942    0.0613849237   -7.1425542444
C       -2.1984928692    1.4660366998   -6.2988580601
H       -2.7707755832    2.3717036982   -6.1885617119
O       -2.5711167886    0.5444381789   -5.3242352788
H       -2.4364590855    0.9821715638   -4.4977319728
48   
Iteration 9 Energy -1329.62228227
H        3.5961903632    7.2882886964   -1.2847825004
C        2.7256954898    6.8518751738   -1.7561788421
H        2.1292323338    7.6356812682   -2.2136633426
H        2.1391810165    6.3229317765   -1.0166569656
O        3.1593984700    5.9823091102   -2.7574679181
C        2.1213059290    5.4486503641   -3.4749580155
H        1.4976887710    6.2509696498   -3.8523739884
O        1.2998631828    4.5877628854   -2.6186516663
C        0.1710906018    3.8910851517   -3.3082440065
H       -0.4739999232    4.6460311544   -3.7157649776
C       -0.5654148765    3.1630135120   -2.1981615437
H        0.0462059162    2.3913381636   -1.7670984465
H       -1.4642776988    2.7256223742   -2.6042711754
O       -0.9675895582    4.1100758510   -1.2418678428
H       -0.1909581791    4.5793127366   -0.9596920883
C        0.6866434359    3.0287847455   -4.3744842631
H        1.2310886930    2.1644942478   -4.0188463193
C        1.5786248039    3.8252766235   -5.3574765964
H        0.9220592618    4.5279897799   -5.8783890021
O        2.1882439820    2.9228782080   -6.2335977215
H        2.5644939206    3.3843778627   -6.9528296340
C        2.7070631337    4.5897343038   -4.6299764995
H        3.4691855790    3.9082373856   -4.2332687620
O        3.3031496684    5.4148486286   -5.6006848965
H        3.9598527238    5.9603766950   -5.1878079563
O       -0.5455280378    2.5471561885   -4.9681773780
C       -0.6726767355    1.7893397355   -6.1157870141
H       -0.0681170152    0.8958364294   -6.0223243050
O       -0.2117964438    2.5532061069   -7.2828596440
C       -0.4459167929    1.9183669811   -8.6159732726
H        0.1021797432    0.9637448541   -8.6434931600
C        0.3079838467    2.8217931909   -9.5668510886
H       -0.0725082465    3.8413584132   -9.4872778466
H        0.1894609719    2.4914612921  -10.5753184907
O        1.6767953393    2.7545378223   -9.2996527304
H        1.8413678978    2.9885869727   -8.4099066134
C       -1.8362507591    1.6439871991   -8.8416105870
H       -1.9154873737    1.0659533405   -9.7628190692
O       -2.5291759186    2.8404957962   -9.0117844082
H       -3.4459951359    2.6210865602   -9.0759664246
C       -2.4109780162    0.7932853394   -7.6857079416
H       -1.9119207893   -0.1625048762   -7.7009343931
O       -3.7872922091    0.6003993770   -7.9339234386
H       -4.1735098421    0.1160458848   -7.2123768862
C       -2.1817141303    1.4507428724   -6.3042606342
H       -2.7526792526    2.3667341775   -6.2108624976
O       -2.6129528099    0.5396543995   -5.3317527983
H       -2.4602201686    0.9285453997   -4.4792814754
48   
Iteration 10 Energy -1329.62681969
H        3.6420677297    7.2949221436   -1.3025908902
C        2.7439387060    6.8811194219   -1.7384287919
H        2.1445235174    7.6892968863   -2.1513356123
H        2.1773084363    6.3649752986   -0.9762971178
O        3.1362937706    5.9903761141   -2.7550796016
C        2.1081809597    5.4415931321   -3.4820808209
H        1.4830911459    6.2348920693   -3.8779389933
O        1.2771031588    4.5862759113   -2.6294976046
C        0.1595537395    3.8807154507   -3.3282770633
H       -0.4845042069    4.6362677574   -3.7618948259
C       -0.6022733492    3.1849046151   -2.2131834396
H        0.0130124562    2.4136939014   -1.7680604746
H       -1.4982010631    2.7356719186   -2.6146322554
O       -1.0056066697    4.1294982579   -1.2630088771
H       -0.2287925330    4.5998423646   -0.9795481424
C        0.6917317224    3.0102984030   -4.3796503355
H        1.2319076923    2.1499752786   -4.0021013688
C        1.5952324911    3.8002771220   -5.3573639872
H        0.9486821357    4.4886938447   -5.8958275889
O        2.2240597154    2.8928590729   -6.2138072294
H        2.6005870646    3.3672514767   -6.9363832074
C        2.7117669598    4.5739493203   -4.6212885089
H        3.4659818548    3.9091152857   -4.2060650696
O        3.3173538376    5.3886870355   -5.5959899325
H        3.9740254146    5.9391004008   -5.1865245196
O       -0.5239465841    2.5278456935   -4.9835004935
C       -0.6452144973    1.7697399377   -6.1267355117
H       -0.0379782105    0.8744367367   -6.0446937250
O       -0.1957116653    2.5416855087   -7.2929294233
C       -0.4489839069    1.9192004825   -8.6283658928
H        0.0896462988    0.9712942099   -8.6691218659
C        0.2840426916    2.8451854625   -9.5755573432
H       -0.0967005089    3.8532105201   -9.4726303369
H        0.1466053891    2.5226485424  -10.5954388724
O        1.6638295820    2.7663900988   -9.3160841473
H        1.8336992000    2.9846366350   -8.4075775790
C       -1.8431327262    1.6523503783   -8.8389961169
H       -1.9364097377    1.0812238474   -9.7734505377
O       -2.5482979043    2.8569982634   -8.9866057452
H       -3.4758922844    2.6601816841   -9.0408398491
C       -2.4069698639    0.7941263902   -7.6832905884
H       -1.9073747224   -0.1738919646   -7.7041724905
O       -3.7749730731    0.6124966353   -7.9170939055
H       -4.1478163379    0.1300443170   -7.1910269954
C       -2.1578601844    1.4388356006   -6.2992734636
H       -2.7213472393    2.3589778982   -6.1961181833
O       -2.6010687471    0.5180729990   -5.3309390927
H       -2.4580844870    0.8818174614   -4.4647986921
48   
Iteration 11 Energy -1329.62817031
H        3.6482570624    7.2933596919   -1.3445428463
C        2.7393449900    6.9013655595   -1.7646360230
H        2.1605501234    7.7222002711   -2.1866792557
H        2.1553292165    6.4224614179   -0.9943756708
O        3.1350601654    5.9871927322   -2.7560693032
C        2.1246130334    5.4398234701   -3.4837972795
H        1.5148113903    6.2390937591   -3.9005488007
O        1.2722337326    4.6014869289   -2.6353885505
C        0.1583227628    3.8999260068   -3.3439360957
H       -0.4733729262    4.6680874086   -3.7965679414
C       -0.6376128351    3.2069862811   -2.2475943774
H       -0.0249573792    2.4197959099   -1.8053280174
H       -1.5167824225    2.7626415994   -2.6841982296
O       -1.0877554352    4.0793371932   -1.2639462440
H       -0.3338633886    4.5433070358   -0.9342945432
C        0.6975303313    3.0136316243   -4.3783259959
H        1.2132787429    2.1495200957   -3.9829259526
C        1.6235516431    3.7846463703   -5.3500897489