124  
Iteration 0 Energy -2503.57658822
C      102.0140000000   14.9730000000   80.2930000000
C      102.1170000000   13.4520000000   79.9330000000
C      102.5640000000   12.7660000000   81.2010000000
C      104.1030000000   12.6320000000   81.0650000000
C      104.7330000000   11.9110000000   82.2700000000
C      105.5030000000   12.9200000000   83.0790000000
C      106.9010000000   13.1690000000   82.4680000000
C      107.6710000000   14.2160000000   83.3380000000
C      107.7520000000   15.5890000000   82.6130000000
N      106.4330000000   16.3900000000   82.8150000000
C      106.1080000000   17.2820000000   81.7160000000
C      104.5870000000   17.2780000000   81.4940000000
C      104.0960000000   17.8730000000   80.1710000000
C      102.6990000000   17.3270000000   79.8760000000
C      102.0630000000   18.1380000000   78.7640000000
C      100.5327328200   17.9744755900   78.8200546800
C      100.7425980300   12.9145988300   79.4927509600
C      104.4236978200   11.8382172300   79.7848977300
C      105.6310000000   12.4070000000   84.5190000000
C      109.0972434600   13.7003542900   83.6054679500
C      106.4610000000   17.0670000000   84.1200000000
C      106.5746065800   18.7095347000   82.0566214600
C      105.0190000000   17.5140000000   78.9960000000
O      101.3550000000   15.3270000000   81.2530000000
O      104.8120000000   14.1600000000   83.1090000000
O      103.9812152200   18.0113188700   82.5617866100
O      104.0240000000   19.3080000000   80.3000000000
O      102.7750000000   15.9580000000   79.4360000000
C      105.1700000000    9.5630000000   82.0590000000
C      106.0420000000    8.5490000000   81.3490000000
C      105.4360000000    7.1980000000   81.4790000000
C      105.2200000000    6.8580000000   82.8980000000
C      104.5460000000    7.9680000000   83.7140000000
C      104.6487271400    7.6134824800   85.2091135300
C      107.5830000000    6.0730000000   81.4850000000
C      105.6760000000    4.8730000000   80.7370000000
O      105.6110000000   10.8760000000   81.8340000000
O      106.1447214500    8.8943377400   79.9651321800
N      106.3200000000    6.1930000000   80.8060000000
O      105.1490000000    9.2910000000   83.5010000000
C      100.7610000000   11.6080000000   82.2990000000
C       99.7450000000   10.5630000000   81.9130000000
C      100.0850000000    9.2030000000   82.4070000000
C      100.3630000000    9.2280000000   83.8630000000
C      101.4650000000   10.2040000000   84.1710000000
C      101.7149812000   10.2040359700   85.6905754000
C       98.8730000000    8.2400000000   82.0950000000
C      101.1300000000    8.0730000000   80.5340000000
O      101.9050000000   11.4980000000   81.4630000000
O      101.2900000000    8.7370000000   81.7650000000
O      100.8680000000    7.9370000000   84.2710000000
O      101.1550000000   11.5810000000   83.7420000000
H      102.0950010700   17.3887765700   80.7570612600
H      105.9317298600   17.1016172000   79.3725164300
H      104.5347261300   16.7949559700   78.3688202000
H      105.2332280000   18.3954554800   78.4285120300
H      104.9119973200   19.6713099100   80.3326599100
H      102.3160730700   19.1704642000   78.8859495700
H      102.4243220100   17.7914981900   77.8183346800
H      100.2763877400   17.2789442600   79.5916914900
H      100.0802528400   18.9213854800   79.0286776200
H      100.1783202900   17.6094794200   77.8787420000
H      104.2464378700   16.2651280200   81.5488433400
H      104.6655253400   18.3924802500   83.1167962100
H      106.6000427200   16.9476485500   80.8266164600
H      107.5152573800   18.8997418900   81.5834435700
H      105.8500895800   19.4147029300   81.7063174900
H      106.6826734800   18.8060178000   83.1167688800
H      107.3412846400   17.6712919900   84.1894992500
H      105.5942987700   17.6866138100   84.2190339100
H      106.4677917100   16.3357354200   84.9010928100
H      108.5708494200   16.1508768600   83.0113466100
H      107.9102583900   15.4272792800   81.5671985400
H      107.1615712600   14.3405954900   84.2706619500
H      109.7571045800   14.5314230800   83.7426100600
H      109.0980232400   13.0949387100   84.4877215200
H      109.4275639100   13.1164277600   82.7719103900
H      107.4496028000   12.2505924500   82.4464932600
H      106.7931938400   13.5435083900   81.4714954600
H      106.5313655900   12.7873393300   84.9544122200
H      104.7901563900   12.7384107600   85.0917555700
H      105.6607609900   11.3374204900   84.5152657100
H      105.4469450600   14.8798204600   83.1264150100
H      103.9584643200   11.4877879400   82.8748851400
H      104.5303597800   13.6095636100   80.9835566900
H      105.3524699400   11.3215789000   79.9088621500
H      103.6434740300   11.1298217800   79.5996229800
H      104.4979719900   12.5117266200   78.9567863500
H      102.3585983900   13.4201958300   82.0224243700
H      102.8390757900   13.3033275200   79.1574981900
H      100.8183962300   11.8673335900   79.2868622800
H      100.0301720800   13.0736395800   80.2750906000
H      100.4242841600   13.4294341900   78.6104126900
H      100.3192830600   12.5640247100   82.1097834600
H       99.6733120700   10.5321787900   80.8458491700
H       98.7937147200   10.8453157500   82.3133175300
H       99.1592970400    7.2291373700   82.2977085300
H       98.0392122200    8.5049226000   82.7110470400
H       98.5992546300    8.3334232200   81.0648371100
H      101.9574539400    7.4136965400   80.3741909700
H      100.2214730400    7.5079738300   80.5489731200
H      101.0894634900    8.7926501000   79.7432026000
H      101.8278585400    7.9527136800   84.2660339400
H       99.4779927900    9.4752622700   84.4112003400
H      102.3571192700    9.8824281800   83.6754046300
H      102.6349416300   10.7084437800   85.9006839000
H      100.9108129400   10.7084505000   86.1843156100
H      101.7728772800    9.1952386300   86.0425355800
H      104.1722761500    9.4725674000   81.6831422300
H      107.0171567200    8.5464812100   81.7894123400
H      107.0704665700    8.9558744200   79.7185369600
H      103.5122186600    8.0143330500   83.4418798300
H      105.5442243600    8.0356155900   85.6150548600
H      103.8008134800    8.0087239000   85.7284656700
H      104.6725189200    6.5497873400   85.3226327000
H      104.6087088100    5.9812167000   82.9477405500
H      106.1681132300    6.6379236700   83.3424634000
H      104.4878485200    7.2020135100   80.9831243400
H      108.3146888800    6.6734138900   80.9859664000
H      107.4774154600    6.4065097800   82.4961988600
H      107.8960521700    5.0498453000   81.4777336100
H      106.3051752200    4.1443386800   81.2040023800
H      104.7343889100    4.9086036900   81.2439526000
H      105.5197820600    4.6054628800   79.7128321200
124  
Iteration 1 Energy -2503.63646913
C      101.9593220965   15.0164724655   80.3467871171
C      102.0605311115   13.5152206859   79.9509535384
C      102.5421086094   12.7933679431   81.2065765845
C      104.0765865471   12.6530094510   81.0623656121
C      104.6858589151   11.9121666995   82.2772188636
C      105.4490806472   12.9181040209   83.1155364999
C      106.8604240173   13.1675719270   82.5243205807
C      107.6513096411   14.2090797090   83.3835657031
C      107.7476197828   15.5760953617   82.6538695572
N      106.4530613019   16.3885683382   82.8556591771
C      106.1429293629   17.2760330391   81.7166241104
C      104.6069404933   17.2954245812   81.4903986651
C      104.1057979055   17.8542928762   80.1343350927
C      102.6841103584   17.3284276261   79.8741036423
C      102.0383969570   18.1107780416   78.7387444724
C      100.4987836660   17.9855970845   78.8138474738
C      100.6782801099   12.9993269500   79.5048430535
C      104.4051016254   11.8835948510   79.7602878581
C      105.5500226451   12.3933140208   84.5601452642
C      109.0742076067   13.6735126699   83.6500912348
C      106.5158489136   17.0342388205   84.1790137489
C      106.6444913863   18.7214063742   81.9784172656
C      105.0080533212   17.4390186214   78.9504739320
O      101.3350707715   15.4253722216   81.2982804928
O      104.7475205279   14.1573148769   83.1370302785
O      103.9982707088   18.0825046417   82.5196454667
O      104.0512733119   19.2914635800   80.2103160228
O      102.7166550506   15.9458913420   79.4757030887
C      105.1194559781    9.5655747239   82.0627094953
C      106.0184045819    8.5620899426   81.3669270312
C      105.4101908563    7.1979271831   81.4676004695
C      105.1466116410    6.8549206807   82.8985121741
C      104.4450263122    7.9667946629   83.6901789458
C      104.4977299513    7.6277113623   85.1910132384
C      107.5908040270    6.0770802351   81.4834398865
C      105.6574124271    4.8863421743   80.6934988333
O      105.5720583686   10.8733111458   81.8599102545
O      106.1582531448    8.9256383512   79.9916004547
N      106.3155186233    6.2049666273   80.7957118079
O      105.0515996956    9.2819069182   83.4934170950
C      100.7821148061   11.5950484517   82.3130528039
C       99.7799034129   10.5286948810   81.9327642446
C      100.1621570831    9.1594767378   82.4092714884
C      100.4692072832    9.1856255770   83.8713094735
C      101.5568232880   10.2002947869   84.1577350685
C      101.8445066135   10.2317144664   85.6687689110
C       98.9681973008    8.1761337520   82.1191967051
C      101.2675971774    8.0673979161   80.5024385941
O      101.9082290594   11.5178101286   81.4543376237
O      101.3732630836    8.7287098236   81.7459614521
O      100.9979487865    7.9036517774   84.2686782767
O      101.2019728075   11.5582063949   83.7328307457
H      102.0930617714   17.4354679482   80.7671062944
H      105.9289505431   17.0210245923   79.3114444499
H      104.5032638411   16.7038581117   78.3487366322
H      105.2254033028   18.3038346868   78.3471754563
H      104.9474097364   19.6401730483   80.2158887588
H      102.3180608380   19.1462212176   78.8192365076
H      102.3823770470   17.7181026512   77.7967492409
H      100.2256543701   17.3223767565   79.6167639284
H      100.0636058963   18.9543843374   78.9918689604
H      100.1182799116   17.5923444076   77.8861802942
H      104.2492391090   16.2840158804   81.5888719073
H      104.6777013614   18.4852281784   83.0634467781
H      106.6317141316   16.8933761227   80.8405577657
H      107.5922741936   18.8683434172   81.4882338969
H      105.9343128775   19.4295095762   81.5926552331
H      106.7669639683   18.8932407034   83.0282618462
H      107.4189531324   17.6155123997   84.2684915348
H      105.6654025262   17.6752696993   84.3144439241
H      106.5086862875   16.2750617682   84.9423182783
H      108.5817775820   16.1327542511   83.0503315682
H      107.8992537628   15.4122868760   81.6009116631
H      107.1456893744   14.3484444635   84.3222455986
H      109.7562329416   14.4967843580   83.7830001206
H      109.0719741337   13.0679352253   84.5408525193
H      109.3992407689   13.0756950937   82.8154826904
H      107.4025111389   12.2385526590   82.5067889900
H      106.7584805317   13.5452648237   81.5206320380
H      106.4434731196   12.7676715030   85.0288321242
H      104.6909928955   12.7238409613   85.1188331763
H      105.5800154456   11.3170486945   84.5534420062
H      105.3724964484   14.8951583865   83.1670840205
H      103.8930391922   11.4848731536   82.8665785280
H      104.5088177746   13.6357591670   80.9995617081
H      105.3345050752   11.3575677391   79.8713117197
H      103.6214875944   11.1750503551   79.5496783652
H      104.4876268524   12.5754209558   78.9391807871
H      102.3458715644   13.4335813370   82.0489449196
H      102.7733661647   13.3875283777   79.1581818138
H      100.7484873601   11.9528888678   79.2649890148
H       99.9653253882   13.1373031137   80.2983958405
H      100.3508926113   13.5443656287   78.6352071213
H      100.3187510292   12.5527224747   82.1532464902
H       99.6860977350   10.5120707613   80.8603266243
H       98.8243090930   10.7867103039   82.3586454142
H       99.2796947711    7.1641289989   82.3133077302
H       98.1383805439    8.4237902923   82.7592216298
H       98.6630948109    8.2658977962   81.0909510152
H      102.1375053919    7.4481752299   80.3625677507
H      100.3874844459    7.4509259396   80.4799669750
H      101.2146046679    8.7934292780   79.7063667184
H      101.9590420776    7.9390492126   84.2442216818
H       99.5833343389    9.4121471558   84.4403032977
H      102.4520669966    9.8986813687   83.6400253814
H      102.7592079676   10.7701339847   85.8514828417
H      101.0329272638   10.7229489046   86.1788579130
H      101.9418328416    9.2259547408   86.0382620977
H      104.1246369308    9.4775260873   81.6557482047
H      106.9864793980    8.5599539129   81.8402924830
H      107.0927644782    8.9941988279   79.7749188736
H      103.4133757800    8.0127280089   83.3804211438
H      105.3854252741    8.0566593869   85.6240153132
H      103.6303245171    8.0290299411   85.6872667139
H      104.5178866395    6.5587538669   85.3189952086
H      104.5302124210    5.9721779004   82.9347280828
H      106.0823262482    6.6368823492   83.3817565818
H      104.4700236699    7.2001778742   80.9407358862
H      108.3298435101    6.6898361135   80.9926146314
H      107.5030180673    6.3919081843   82.5087220552
H      107.9141967049    5.0513528257   81.4604802395
H      106.2706658404    4.1323522096   81.1560665574
H      104.7007277192    4.9131410130   81.1881583699
H      105.5107830457    4.6354526539   79.6556963666
124  
Iteration 2 Energy -2503.66293620
C      101.9442150836   15.0183774829   80.3485762719
C      102.0320593123   13.5268684918   79.9526211453
C      102.5120754623   12.7922790728   81.2155813336
C      104.0455277664   12.6347188106   81.0795113729
C      104.6460401328   11.8877253274   82.3030050412
C      105.4099885590   12.8908174156   83.1595207604
C      106.8268282938   13.1389470529   82.5773254634
C      107.6296055309   14.1757094173   83.4299146821
C      107.7317417226   15.5361744158   82.6946056420
N      106.4533448020   16.3540662515   82.8862148637
C      106.1602686757   17.2330147154   81.7260965187
C      104.6208327514   17.2660966889   81.4835239720
C      104.1303985922   17.8055188878   80.1032521255
C      102.6961337375   17.2958546310   79.8487398378
C      102.0549350557   18.0593720643   78.6922330858
C      100.5093004735   17.9587336068   78.7622246253
C      100.6439020963   13.0353947986   79.4957606946
C      104.3820830121   11.8663785929   79.7741706688
C      105.5002149522   12.3573910525   84.6054554988
C      109.0512227311   13.6316504190   83.6991394770
C      106.5166168156   17.0031471997   84.2075255967
C      106.6852316687   18.6805444068   81.9582817277
C      105.0351108352   17.3551840758   78.9272806937
O      101.3256895151   15.4417536989   81.2909962250
O      104.7022500274   14.1297415306   83.1796509141
O      104.0040245853   18.0787397046   82.4883553767
O      104.0856148589   19.2419700373   80.1450734827
O      102.7058186003   15.9054439940   79.4795402699
C      105.1365320029    9.5276305937   82.0587378680
C      106.0901069086    8.5902031535   81.3389354623
C      105.5501173471    7.1871353188   81.3976127405
C      105.2950183196    6.7985798765   82.8317111005
C      104.5357906575    7.8593301579   83.6404737194
C      104.5982154924    7.5006771516   85.1358925553
C      107.7977630818    6.1792768990   81.3734613220
C      105.9002394835    4.9169788157   80.5517441591
O      105.5419285627   10.8513022164   81.8880144741
O      106.2155939894    9.0028073857   79.9770106799
N      106.5032010980    6.2620991596   80.6964150094
O      105.0756479433    9.1999170724   83.4737537484
C      100.7347547500   11.6583250386   82.3091916408
C       99.7030807140   10.6094377833   81.9462787250
C      100.0370146111    9.2337305740   82.4673298106
C      100.3271661942    9.3024147244   83.9409698434
C      101.4439241341   10.3039520543   84.2035030791
C      101.7175930757   10.4047389263   85.7121582897
C       98.8204154394    8.2830781414   82.1950571549
C      101.1534741491    8.0501507691   80.6096000072
O      101.8625476960   11.5303752365   81.4588748855
O      101.2437188970    8.7458631484   81.8371537192
O      100.7972940138    8.0200808632   84.3950040511
O      101.1325638383   11.6441530922   83.7211651236
H      102.1044500088   17.4322271916   80.7425333098
H      105.9571240387   16.9318518780   79.2907134711
H      104.5256352580   16.6104334096   78.3336358139
H      105.2630254384   18.2097213358   78.3048242754
H      104.9872147803   19.5800027155   80.1443631724
H      102.3509769556   19.0961045701   78.7486331806
H      102.3978316419   17.6370016886   77.7568797228
H      100.2162695750   17.3170259409   79.5820510606
H      100.0823690630   18.9408966003   78.9154153912
H      100.1207296649   17.5475438719   77.8397450375
H      104.2502069395   16.2556312681   81.6007178483
H      104.6787981170   18.4902914275   83.0326522394
H      106.6532044641   16.8242857728   80.8603459408
H      107.6430777311   18.8035501399   81.4700038893
H      105.9903509877   19.3977533713   81.5521046691
H      106.8072604264   18.8828753913   83.0073126320
H      107.4289168903   17.5802462600   84.3090393603
H      105.6675995946   17.6540435072   84.3404406990
H      106.4964226409   16.2418354803   84.9747808635
H      108.5747328579   16.0933648161   83.0887393713
H      107.8811140837   15.3662047434   81.6375377574
H      107.1250994401   14.3237915670   84.3726898906
H      109.7461268242   14.4514528171   83.8299954623
H      109.0478697651   13.0263794314   84.5963731356
H      109.3768566088   13.0243899542   82.8650763873
H      107.3633102438   12.2018344270   82.5602000507
H      106.7280771487   13.5193440947   81.5686350646
H      106.3915859552   12.7271455493   85.0926750791
H      104.6317143402   12.6876358659   85.1590633861
H      105.5299944261   11.2762739696   84.5964261195
H      105.3236100940   14.8778026850   83.2156082963
H      103.8447343159   11.4587767625   82.8877196446
H      104.4819905919   13.6202872749   81.0231067654
H      105.3107474836   11.3324350107   79.8866243477
H      103.5953220401   11.1570202102   79.5511839307
H      104.4753254777   12.5608386021   78.9496837625
H      102.3193829586   13.4354306295   82.0627049635
H      102.7461352033   13.3937339843   79.1575241468
H      100.7002355725   11.9851468421   79.2488746864
H       99.9226957002   13.1788762454   80.2869486083
H      100.3260899015   13.5917689982   78.6233024993
H      100.3034098541   12.6319958495   82.1271201974
H       99.6182865908   10.5712694218   80.8686486964
H       98.7469570792   10.9078103772   82.3583483439
H       99.0970036385    7.2639639907   82.4276172260
H       97.9881784041    8.5793330088   82.8193740081
H       98.5251349552    8.3469104834   81.1568681400
H      102.0179193341    7.4064617377   80.5169570301
H      100.2589540470    7.4466963881   80.5734139546
H      101.1421736695    8.7541175646   79.7841560272
H      101.7600484121    8.0218732729   84.3831805018
H       99.4365758893    9.5779578094   84.4902919602
H      102.3398030057    9.9550438168   83.7076676230
H      102.6477451799   10.9312482012   85.8803013261
H      100.9101773402   10.9439930216   86.1902959970
H      101.7854934817    9.4140623581   86.1367882952
H      104.1425908033    9.4034646326   81.6421147654
H      107.0591206364    8.6242789579   81.8218432434
H      107.1479149803    9.1257304903   79.7697271341
H      103.5004816427    7.8614014691   83.3213725301
H      105.4664607181    7.9679069145   85.5807275263
H      103.7094309278    7.8513716185   85.6418317354
H      104.6705926130    6.4274640043   85.2504984169
H      104.7193317285    5.8819828055   82.8500648338
H      106.2406606088    6.6165235743   83.3213823770
H      104.6089535030    7.1548906678   80.8624824240
H      108.5051707277    6.8457238089   80.8932408909
H      107.7172689615    6.4575498188   82.4156351107
H      108.1774991701    5.1697033690   81.3159297435
H      106.5456512239    4.1670444642   80.9879011169
H      104.9392870564    4.8794750556   81.0489226178
H      105.7592709839    4.6918594049   79.5014714929
124  
Iteration 3 Energy -2503.68986160
C      101.8947925261   15.0869670611   80.4011014758
C      101.9709342778   13.6360716067   79.9536827502
C      102.5223499721   12.8489195243   81.1849355095
C      104.0413940498   12.6784776087   81.0224973306
C      104.5976639782   11.9149052515   82.2671425153
C      105.3588346690   12.9074093636   83.1702182690
C      106.7901756802   13.1412706419   82.6231965386
C      107.6114047083   14.1665318372   83.4654229624
C      107.7180347821   15.5150253032   82.7214899447
N      106.4680330149   16.3314238557   82.9052081721
C      106.1795342215   17.2077123727   81.7304827281
C      104.6316453806   17.2619794233   81.4884462250
C      104.1210764615   17.7889924942   80.0861975305
C      102.6549608966   17.3166327336   79.8806168181
C      101.9728324124   18.0601556524   78.7227352152
C      100.4210156326   17.9960756772   78.8370199457
C      100.5686299247   13.1757220747   79.5062210113
C      104.3806536966   11.9420700521   79.6923919947
C      105.3950113609   12.3607377962   84.6196105784
C      109.0271182186   13.6027484598   83.7472826422
C      106.5355324791   16.9883861714   84.2181122363
C      106.7461998310   18.6519233445   81.9267522911
C      104.9963864267   17.2985276115   78.8917377320
O      101.3070559917   15.4789643843   81.3682233133
O      104.6509644355   14.1519516729   83.1672785075
O      104.0207568796   18.0964171868   82.4783792215
O      104.0867007366   19.2199292271   80.0903870394
O      102.6149521880   15.9198340234   79.5446606081
C      105.0192248239    9.5629972605   82.0498558121
C      105.9902170491    8.5891205048   81.3936924667
C      105.3969267852    7.1878227031   81.4366058537
C      105.0299627992    6.8443931235   82.8872308350
C      104.2597274687    7.9576416948   83.6136994765
C      104.2069013298    7.6680296744   85.1223867301
C      107.6265948013    6.1088712514   81.5227134891
C      105.6834597540    4.9064711117   80.6206365138
O      105.4876198151   10.8562903087   81.8977276048
O      106.2088141728    8.9858490955   80.0411394165
N      106.3461719943    6.2260536431   80.7950357724
O      104.8563275614    9.2543747117   83.4438805012
C      100.8460017958   11.6080768424   82.3254619791
C       99.8573057456   10.5048691334   81.9755596503
C      100.3133018475    9.1150867880   82.4211884226
C      100.6960280467    9.1667002480   83.8951964489
C      101.7581915561   10.2576150046   84.1114644663
C      102.1267103758   10.3921198956   85.5912909446
C       99.1588378460    8.1038594544   82.1937970985
C      101.4176883261    8.0842557692   80.4614056521
O      101.9246592190   11.5717630679   81.4092813000
O      101.5100894084    8.7349269728   81.7140544986
O      101.2520295068    7.9093747064   84.2925700793
O      101.3222495469   11.5582200538   83.6755471539
H      102.0958179848   17.4914578791   80.7988155273
H      105.9347706526   16.8596637279   79.2208733404
H      104.4643262515   16.5447209970   78.3130151259
H      105.2216422611   18.1463450683   78.2420504192
H      104.9973234423   19.5397548425   80.0554244293
H      102.2970409036   19.0987031987   78.7384968154
H      102.2818983567   17.5992443239   77.7815668687
H      100.1224148335   17.3810478174   79.6883935715
H      100.0071330279   18.9972861823   78.9747555337
H       99.9826034639   17.5651292039   77.9337077058
H      104.2432037157   16.2493831260   81.6297469123
H      104.7004584591   18.5175999959   83.0146694016
H      106.6676745439   16.7695437563   80.8678672531
H      107.7141020750   18.7455510094   81.4291780181
H      106.0713886568   19.3939114864   81.5097166679
H      106.8871764098   18.8902488845   82.9788134000
H      107.4585965145   17.5721821008   84.3369441198
H      105.6784413464   17.6468174017   84.3516770394
H      106.5065555247   16.2246085737   84.9952256778
H      108.5766304017   16.0791284950   83.1092922166
H      107.8630228777   15.3360910621   81.6555005474
H      107.1065094567   14.3342977929   84.4154113534
H      109.7507479227   14.4119939808   83.8793276043
H      109.0171810193   12.9965425494   84.6567174866
H      109.3587007353   12.9759297140   82.9163721753
H      107.3132606779   12.1867091477   82.6100163213
H      106.7042358082   13.5240532252   81.6024245162
H      106.2741795121   12.7129577849   85.1624750856
H      104.5000409399   12.7007072942   85.1441754137
H      105.4142451557   11.2690340027   84.6098715093
H      105.2746340591   14.9119185347   83.2182598115
H      103.7620523806   11.4944437133   82.8265971037
H      104.4898799772   13.6687772359   80.9886020664
H      105.3094289266   11.3896424300   79.7836708590
H      103.5864346259   11.2353212471   79.4363646155
H      104.4861363222   12.6590810091   78.8745039535
H      102.3572278383   13.4689001717   82.0674096216
H      102.6614187490   13.5394634271   79.1235542887
H      100.6128365884   12.1291948671   79.2052601637
H       99.8514059150   13.2832893072   80.3190392640
H      100.2273255031   13.7774357042   78.6598848201
H      100.3530724159   12.5751372009   82.2308655771
H       99.7040883631   10.5096872577   80.8944752165
H       98.9028429893   10.7269491644   82.4625286103
H       99.5152835584    7.0892524582   82.3786965626
H       98.3426801127    8.3269327863   82.8838762025
H       98.7828151932    8.1730928853   81.1711509001
H      102.3382485890    7.5145493733   80.3202292765
H      100.5702315803    7.3983981947   80.4165410003
H      101.3242775361    8.8188749344   79.6512872678
H      102.2129608185    7.9737670503   84.2169524440
H       99.8156208170    9.3703745181   84.5091346950
H      102.6517390126    9.9766668427   83.5471105892
H      103.0292248989   10.9976206205   85.6982955684
H      101.3072143575   10.8748051437   86.1296653731
H      102.3037372682    9.4069260471   86.0217749168
H      104.0332241084    9.4699369620   81.5736159607
H      106.9354693113    8.6019573309   81.9456380545
H      107.1585461369    9.0788309584   79.8958860207
H      103.2369111582    7.9897821648   83.2187181324
H      105.0718270393    8.1252342572   85.6070292597
H      103.2990731264    8.0775055520   85.5688368110
H      104.2260907429    6.5903477643   85.2973182768
H      104.4122483907    5.9422773658   82.9013827002
H      105.9404126287    6.6415787812   83.4542094141
H      104.4821951632    7.1768478350   80.8362332497
H      108.3817051121    6.7521692680   81.0569828519
H      107.5481927956    6.3958924884   82.5759600397
H      107.9853600324    5.0807313870   81.4834132463
H      106.2664863492    4.1089617094   81.0858057154
H      104.6871593195    4.9013020378   81.0707813498
H      105.5778119135    4.6811686279   79.5543710044
124  
Iteration 4 Energy -2503.70628114
C      101.9043144284   15.0718951491   80.3978158928
C      101.9660599805   13.6180391799   79.9677162902
C      102.4943501700   12.8271777068   81.2129599330
C      104.0162591775   12.6415798512   81.0602238571
C      104.5861846628   11.8797851246   82.3031224746
C      105.3516967722   12.8712431479   83.2098534608
C      106.7781169109   13.1145788477   82.6541247819
C      107.6070196101   14.1391313062   83.4894310348
C      107.7058746133   15.4882719400   82.7480755583
N      106.4636484082   16.3049538035   82.9296354140
C      106.1877741322   17.1727088383   81.7411930691
C      104.6434670039   17.2326802126   81.4837451242
C      104.1560583135   17.7374958306   80.0628200995
C      102.6865418848   17.2789177790   79.8507877446
C      102.0184397247   18.0028016108   78.6712930255
C      100.4649631107   17.9536354300   78.7708912781
C      100.5614510038   13.1809932578   79.5057648693
C      104.3531358424   11.9031346368   79.7309837172
C      105.4028927471   12.3144058203   84.6547296323
C      109.0260419572   13.5789881636   83.7609893576
C      106.5258705107   16.9618392945   84.2421243186
C      106.7651087892   18.6173171834   81.9091094369
C      105.0405675910   17.2160611450   78.8874860706
O      101.3061238998   15.4830878515   81.3558924774
O      104.6310710052   14.1084835432   83.2178511817
O      104.0198100011   18.0859318410   82.4486197258
O      104.1302100261   19.1670325948   80.0368113266
O      102.6359568066   15.8746986027   79.5446173918
C      105.0868779448    9.5203483979   82.0534085411
C      106.1041358065    8.6236227747   81.3533025499
C      105.6033097205    7.1832179952   81.3731772105
C      105.2900700342    6.7876032720   82.8272020448
C      104.4683554030    7.8349182754   83.5930084241
C      104.4733276213    7.5126092514   85.0961209565
C      107.8993918807    6.2479100512   81.3739142790
C      106.0064818463    4.9480996951   80.4906100418
O      105.4883627360   10.8352818659   81.9199391531
O      106.2668676801    9.0662653240   80.0077682605
N      106.5922559842    6.3000034324   80.6866523178
O      104.9767548912    9.1672412908   83.4386170829
C      100.7539012088   11.6840996527   82.3217209925
C       99.7091071802   10.6306756564   81.9752375537
C      100.0602401649    9.2257876100   82.4717640159
C      100.4026927948    9.3038759589   83.9586264666
C      101.5257645374   10.3377597909   84.1740149094
C      101.8575998710   10.5154029232   85.6565900704
C       98.8518751208    8.2871120663   82.2423658282
C      101.1619929288    8.0696091715   80.5793944542
O      101.8510995050   11.5707970833   81.4282581950
O      101.2501409814    8.7487588151   81.8166458046
O      100.8512295829    8.0279778881   84.4165490173
O      101.1822620248   11.6411093387   83.6794540820
H      102.1204980032   17.4781956870   80.7609845821
H      105.9743023318   16.7739752144   79.2297729432
H      104.5094286236   16.4549340293   78.3152760065