135  
Iteration 0 Energy -4243.25499757
C       10.8986420000   16.9041560000    2.4260030000
C       11.7957150000   16.1819690000    1.6041700000
C       13.1035320000   16.4946740000    2.0340750000
C       13.0199830000   17.3998200000    3.1065590000
C       11.6638700000   17.6576600000    3.3617680000
C        9.6251140000   16.4626500000    2.6994410000
C        9.1981900000   15.3608850000    1.9019130000
H        8.2825240000   15.1054010000    1.9292570000
C       10.0616970000   14.6478820000    1.0891950000
H        9.7265320000   13.9162770000    0.5833340000
C       11.4525810000   14.9890780000    0.9950110000
C       12.5720500000   14.1762360000    0.6213120000
H       12.4262010000   13.4264990000    0.0562070000
C       13.8615160000   14.4425520000    1.0542550000
H       14.5656510000   13.8550550000    0.8111990000
C       14.1524910000   15.6003580000    1.8700120000
C       15.2453980000   15.8169910000    2.7678000000
H       16.0458810000   15.3243880000    2.6341190000
C       15.1869610000   16.7169570000    3.8266130000
H       15.9468770000   16.8290410000    4.3856420000
C       13.9996390000   17.4803510000    4.0894170000
C       13.5724730000   18.0751480000    5.3153310000
H       14.2155160000   18.2889550000    5.9806970000
C       12.2223970000   18.3482930000    5.5507910000
H       11.9746460000   18.7646040000    6.3680670000
C       11.2021740000   18.0271120000    4.6104690000
C        9.7861760000   17.7657410000    4.8611200000
C        9.0050110000   16.9941050000    3.9132020000
C        7.6602480000   16.6696280000    4.2352510000
H        7.1355270000   16.1555970000    3.6321680000
C        7.1229710000   17.0948870000    5.4125530000
C        7.8908550000   17.8498030000    6.3376850000
C        9.1962580000   18.1627430000    6.0779190000
H        9.7048000000   18.6468690000    6.7159410000
C        5.7579240000   16.8791960000    6.0520940000
H        5.0081500000   16.6171180000    5.4444540000
C        5.6210080000   18.2538700000    6.8025300000
H        5.5901000000   19.0283310000    6.1872940000
H        4.8536070000   18.2795360000    7.4268800000
C        6.9860550000   18.1085850000    7.5271410000
H        7.2514340000   18.8517280000    8.1408570000
C        6.7774230000   16.7303790000    8.1636430000
C        6.0150920000   15.9794650000    7.2597790000
C        5.6920020000   14.6730780000    7.5210640000
H        5.2085730000   14.1611660000    6.8815230000
C        6.0819800000   14.0907600000    8.7515350000
C        6.8684580000   14.8633370000    9.6888200000
C        7.2140060000   16.1984520000    9.3439840000
H        7.7464540000   16.7183700000    9.9318760000
C        6.0447940000   12.2861180000   10.3405140000
C        6.8276490000   13.0502180000   11.2519740000
C        7.4559620000   12.1613190000   12.1421660000
C        7.0556000000   10.8565800000   11.8125220000
C        6.1935410000   10.9258080000   10.6807920000
C        5.7569580000   12.6934810000    9.0644700000
C        5.4191370000   11.6322180000    8.1545290000
H        5.0878360000   11.8512050000    7.2916800000
C        5.5652280000   10.2933360000    8.5024030000
H        5.3220650000    9.6236590000    7.8734950000
C        6.0754610000    9.8942140000    9.7860420000
C        6.7298530000    8.6676510000   10.1612600000
H        6.5897980000    7.8882450000    9.6371700000
C        7.5566560000    8.5998350000   11.2656460000
H        7.9492910000    7.7658010000   11.4935110000
C        7.8435260000    9.7548160000   12.0874790000
C        8.9958350000   10.0100650000   12.9184260000
H        9.5092070000    9.2775180000   13.2374370000
C        9.3689110000   11.2919640000   13.2571860000
H       10.1177190000   11.4179400000   13.8268480000
C        8.6570490000   12.4504760000   12.7725930000
C        9.1175380000   13.7912420000   12.6039730000
H        9.8617570000   14.0952340000   13.1083140000
C        8.5008150000   14.6601270000   11.7183370000
H        8.8403270000   15.5433750000   11.6317490000
C        7.3642020000   14.2716010000   10.9238480000
C       11.6510720000   15.2106560000    7.6836080000
C       12.8536080000   14.9337430000    8.3550500000
C       14.0484160000   14.6281030000    7.6562640000
C       14.0488990000   14.6172710000    6.2738830000
C       12.8391190000   14.9076060000    5.5690210000
C       11.6679750000   15.1823990000    6.2040040000
C       10.4050720000   14.6669550000    8.1165510000
C       10.3591920000   13.8607060000    9.2254940000
C       11.6172660000   13.5553010000    9.9804870000
C       12.8270460000   14.0693330000    9.5429860000
C       13.9817700000   13.2357690000    9.5596960000
C       14.7646250000   13.5701360000    8.3641650000
C       15.4151530000   12.5788070000    7.7063940000
C       15.4397840000   12.5905810000    6.2298290000
C       14.7846670000   13.5691940000    5.5659820000
C       13.9812870000   13.2216400000    4.3704510000
C       12.8004840000   14.0323640000    4.3658930000
C       11.6172660000   13.5447050000    3.9390260000
C       10.3591920000   13.8409270000    4.6833850000
C       10.4171450000   14.6507080000    5.7786560000
C        9.6212500000   14.3231690000    6.9468440000
C       13.8974960000   11.8862900000    9.9835250000
C       14.6081510000   10.8669410000    9.2482810000
C       15.3622710000   11.2342740000    8.1256660000
C       12.6324190000   11.3567180000   10.4286220000
C       15.3786910000   11.2225000000    5.7968860000
C       13.9197110000   11.9067760000    3.9496600000
C       11.5093280000   12.1900460000    3.5000060000
C        9.5340780000   12.6565120000    4.6621180000
C        8.8354970000   13.1792560000    6.9468440000
C       12.4962280000    8.3363440000    7.6836080000
C       11.2936920000    8.6132570000    8.3550500000
C       10.0988840000    8.9188970000    7.6562640000
C       10.0984010000    8.9297290000    6.2738830000
C       11.3081810000    8.6393940000    5.5690210000
C       12.4793250000    8.3646010000    6.2040040000
C       13.7422280000    8.8800450000    8.1165510000
C       13.7881080000    9.6862940000    9.2254940000
C       12.5300340000    9.9916990000    9.9804870000
C       11.3202540000    9.4776670000    9.5429860000
C       10.1655300000   10.3112310000    9.5596960000
C        9.3826750000    9.9768640000    8.3641650000
C        8.7321470000   10.9681930000    7.7063940000
C        8.7075160000   10.9564190000    6.2298290000
C        9.3626330000    9.9778060000    5.5659820000
C       10.1660130000   10.3253600000    4.3704510000
C       11.3468160000    9.5146360000    4.3658930000
C       12.5300340000   10.0022950000    3.9390260000
C       13.7881080000    9.7060730000    4.6833850000
C       13.7301550000    8.8962920000    5.7786560000
C       14.5260500000    9.2238310000    6.9468440000
C       10.2498040000   11.6607100000    9.9835250000
C        9.5391490000   12.6800600000    9.2482810000
C        8.7850290000   12.3127260000    8.1256660000
C       11.5148810000   12.1902820000   10.4286220000
C        8.7686090000   12.3245000000    5.7968860000
C       10.2275890000   11.6402240000    3.9496600000
C       12.6379720000   11.3569540000    3.5000060000
C       14.6132220000   10.8904880000    4.6621180000
C       15.3118030000   10.3677440000    6.9468440000
135  
Iteration 1 Energy -4243.63025674
C       10.8735053768   16.8476441853    2.4548298422
C       11.7861549343   16.0973560772    1.6620310649
C       13.1100274214   16.4207373868    2.0750765087
C       13.0203457659   17.3748569716    3.1229945786
C       11.6474732079   17.6380212913    3.3660534590
C        9.5946233612   16.4095194908    2.7343853425
C        9.1573535835   15.2620809645    1.9761222160
H        8.1526178111   14.9458567508    2.0068159035
C       10.0457008818   14.5249573726    1.1955416023
H        9.6757495484   13.6848639028    0.6781316509
C       11.4462419953   14.8744642906    1.0955202095
C       12.5778443559   14.0381094052    0.7534976633
H       12.4342450228   13.1689920426    0.1746934113
C       13.8692504094   14.3383711774    1.1783361468
H       14.6402257416   13.6642250012    0.9332317177
C       14.1704651419   15.5295532201    1.9509572798
C       15.2823345089   15.7829806295    2.8410438870
H       16.1802938739   15.2407561126    2.7403770602
C       15.2026740022   16.7270248885    3.8637493619
H       16.0474002800   16.8601224138    4.4788491343
C       14.0009885042   17.4989664471    4.1047793634
C       13.5633991044   18.1404127355    5.3202766290
H       14.2624460446   18.4020268053    6.0636332427
C       12.2108485227   18.4099959321    5.5477382105
H       11.9482283834   18.8860100068    6.4501064805
C       11.1831744793   18.0492392621    4.6030484866
C        9.7586056408   17.7908157764    4.8567344767
C        8.9751070888   16.9897971194    3.9297943616
C        7.6274757496   16.6771867857    4.2533853279
H        7.0636305478   16.0887445329    3.5864731388
C        7.0826113325   17.1351475993    5.4281954244
C        7.8517846770   17.9096868235    6.3410357839
C        9.1647702348   18.2234211019    6.0713439325
H        9.7348615978   18.7768728171    6.7617713145
C        5.7075695643   16.9330782811    6.0707200050
H        4.9099132482   16.6402813566    5.4259977131
C        5.5691710252   18.3199180200    6.8092414932
H        5.5367321740   19.1451252474    6.1338128285
H        4.7427557799   18.3497567351    7.4831121092
C        6.9472395212   18.1857517664    7.5434923378
H        7.2347140346   18.9844915769    8.1895091891
C        6.7476952996   16.8052086725    8.1981860072
C        5.9746867733   16.0444572746    7.2891447351
C        5.6519575135   14.7316940260    7.5483601149
H        5.1136380159   14.1504549011    6.8544741994
C        6.0623248965   14.1467687298    8.7710996517
C        6.8571854830   14.9273129588    9.7059735117
C        7.1989662623   16.2707373076    9.3844360482
H        7.7943401797   16.8358673041   10.0431540698
C        6.0695356213   12.3058220489   10.3208424400
C        6.8608108882   13.0713151833   11.2382942804
C        7.5211244273   12.1555620348   12.0990882657
C        7.1361191883   10.8369241035   11.7395266734
C        6.2461028481   10.9303338840   10.6277826202
C        5.7504699372   12.7371864897    9.0510849529
C        5.4045301499   11.6925002408    8.1100502148
H        5.0275742769   11.9430752469    7.1589279850
C        5.5740544663   10.3431462085    8.4188908579
H        5.3101456384    9.6235827930    7.6955734855
C        6.1178659357    9.9182469310    9.6910594824
C        6.8006968016    8.6815436590   10.0208004738
H        6.6547965459    7.8321343679    9.4149380623
C        7.6604156783    8.5900699584   11.1101555941
H        8.1242150032    7.6664354718   11.3155671777
C        7.9452641559    9.7332803582   11.9616828538
C        9.1138258640    9.9886982445   12.7825943910
H        9.7110198300    9.1791591921   13.0955083581
C        9.4781633826   11.2779370233   13.1543263643
H       10.3290039816   11.4081581144   13.7619035706
C        8.7327850745   12.4444404356   12.7165422539
C        9.1740019911   13.8109668793   12.5769817041
H       10.0124333412   14.1484639855   13.1177831247
C        8.5269829579   14.7026563256   11.7217512309
H        8.9043575986   15.6828279013   11.6424024916
C        7.3780911886   14.3143849270   10.9320117258
C       11.6456125493   15.2405883489    7.6926433589
C       12.8357235536   14.9567143731    8.3759734354
C       14.0507858793   14.6478181545    7.6595654930
C       14.0527788132   14.6385803757    6.2605441981
C       12.8334656156   14.9346212926    5.5478527010
C       11.6555080099   15.2187614256    6.2162479246
C       10.3793437185   14.6867258272    8.1345548528
C       10.3320615032   13.8660370556    9.2560209550
C       11.5753476776   13.5637525869   10.0027024131
C       12.7940003710   14.0883101846    9.5661663915
C       13.9785310018   13.2548532249    9.5768265773
C       14.7657139016   13.5898845469    8.3814962826
C       15.4317131492   12.5849888756    7.7017879931
C       15.4514442207   12.5914896341    6.2209470746
C       14.7810968845   13.5889411504    5.5374560282
C       13.9811436982   13.2449452176    4.3471332168
C       12.7875883201   14.0658579077    4.3482053783
C       11.5793343187   13.5571912134    3.9108902792
C       10.3302146602   13.8568572468    4.6551880416
C       10.3844722813   14.6751778882    5.7749484610
C        9.5885525201   14.3438227074    6.9525672204
C       13.9015983621   11.9128785874   10.0028764670
C       14.6152343213   10.8738560600    9.2728173435
C       15.3710439509   11.2178000407    8.1403251739
C       12.6290974833   11.3662456093   10.4523031305
C       15.3867267077   11.2066463936    5.7818404033
C       13.9174914023   11.9172913903    3.9177586428
C       11.4916857490   12.1791958257    3.4622124986
C        9.5017297971   12.6642250883    4.6384634437
C        8.7980195151   13.1953242953    6.9499516462
C       12.4753103987    8.3060293581    7.6981278237
C       11.2845915384    8.5912991136    8.3797441903
C       10.0700800065    8.8985352978    7.6612666753
C       10.0692212790    8.9041204185    6.2618478479
C       11.2891604698    8.6056530404    5.5509554327
C       12.4673593290    8.3233806186    6.2220634224
C       13.7400970762    8.8606556129    8.1407576331
C       13.7860345688    9.6821196242    9.2624310597
C       12.5418120385    9.9856354047   10.0070329729
C       11.3238467553    9.4611618963    9.5693057444
C       10.1390642759   10.2942005555    9.5766171411
C        9.3545958161    9.9572738723    8.3809440522
C        8.6908878844   10.9604094960    7.6987710394
C        8.6721668873   10.9518955613    6.2176294150
C        9.3423423240    9.9529461125    5.5359384950
C       10.1436343441   10.2956092317    4.3456828778
C       11.3369211737    9.4744917584    4.3493761784
C       12.5469947985    9.9845019931    3.9130976214
C       13.7954160910    9.6854789655    4.6604791521
C       13.7387928927    8.8674409706    5.7812579480
C       14.5326739531    9.2013689179    6.9599172630
C       10.2150757220   11.6359845727    9.9995067155
C        9.5038421939   12.6733428587    9.2666570444
C        8.7508688798   12.3281729370    8.1348921363
C       11.4867718352   12.1834969678   10.4502411354
C        8.7368696259   12.3372946380    5.7764204147
C       10.2090728917   11.6241072660    3.9151224693
C       12.6355141765   11.3620634025    3.4633869905
C       14.6236297869   10.8788213296    4.6436915595
C       15.3239649100   10.3500935236    6.9563206492
135  
Iteration 2 Energy -4243.64451350
C       10.9042329330   16.9177656428    2.3752301488
C       11.8138876611   16.2111202964    1.5366054049
C       13.1389803482   16.5578441055    1.9272891053
C       13.0519617969   17.4804615443    3.0072791375
C       11.6778290250   17.7039653442    3.2932159352
C        9.6408419887   16.4448708267    2.6734168726
C        9.2218565256   15.3065323025    1.8871111207
H        8.2132447162   14.9656881495    1.9382109274
C       10.1067680801   14.6114736458    1.0640371461
H        9.7436305428   13.7657125264    0.5255488526
C       11.4950887424   14.9968469861    0.9404130430
C       12.6410520555   14.2013045177    0.5465235399
H       12.5006458575   13.3342841947   -0.0584706270
C       13.9339351157   14.5243860825    0.9479748106
H       14.7303083035   13.8746012494    0.6655553134
C       14.2184103176   15.7007761159    1.7493804684
C       15.3446854819   15.9616267524    2.6207689955
H       16.2603544221   15.4353264773    2.4742764313
C       15.2683518615   16.8716584845    3.6732293002
H       16.1314485899   17.0131249499    4.2828636587
C       14.0527565776   17.6037708056    3.9666467201
C       13.6248050074   18.2017763916    5.2091487451
H       14.3472453959   18.4606406394    5.9490911505
C       12.2745123376   18.4331061361    5.4791065803
H       12.0215351392   18.8822390456    6.4120906294
C       11.2290574838   18.0725349885    4.5498235651
C        9.8131779117   17.7816047432    4.8264764378
C        9.0299380777   16.9855711160    3.8954916084
C        7.6916807960   16.6471537898    4.2358419842
H        7.1207720672   16.0566112743    3.5572454423
C        7.1490228464   17.0848378084    5.4222445250
C        7.9168509179   17.8559638419    6.3392897553
C        9.2254567468   18.1822828160    6.0570548420
H        9.8037710208   18.7412316646    6.7554247132
C        5.7756577685   16.8663861350    6.0710695623
H        4.9726328315   16.5739808377    5.4180069933
C        5.6383536530   18.2499564048    6.8122059903
H        5.6084537902   19.0846038667    6.1315478293
H        4.8018448788   18.2787100302    7.4903788172
C        7.0136169189   18.1158117501    7.5517983345
H        7.3017350163   18.9197557357    8.2059826086
C        6.7939122987   16.7394126090    8.2104543483
C        6.0238918331   15.9771698186    7.2982986684
C        5.6882355652   14.6694284056    7.5726864416
H        5.1444868235   14.0857488218    6.8665265638
C        6.0675746702   14.0911208324    8.8124111883
C        6.8575201688   14.8704327675    9.7534798283
C        7.2198287194   16.2021635306    9.4060136065
H        7.8171606166   16.7751158465   10.0759670150
C        6.0040404802   12.2757044242   10.3975041966
C        6.7888424603   13.0417688619   11.3222167791
C        7.4075708339   12.1305792042   12.2216403432
C        7.0019803889   10.8123233193   11.8764344425
C        6.1437825081   10.9024753945   10.7395075040
C        5.7245469520   12.6912183152    9.1113244976
C        5.3793165500   11.6320841691    8.1865547373
H        5.0283068106   11.8741378821    7.2098813224
C        5.5130052882   10.2860671779    8.5261567015
H        5.2506901944    9.5493489144    7.8010685207
C        6.0158453984    9.8734747551    9.8193414324
C        6.6620223882    8.6302817515   10.1947467318
H        6.5123366928    7.7621574762    9.5941757627
C        7.4910682709    8.5423017408   11.3082928101
H        7.9352779233    7.6021507363   11.5449727986
C        7.7798571009    9.6954380835   12.1443408623
C        8.9300313477    9.9434128992   12.9941680713
H        9.5080932291    9.1181132349   13.3428233391
C        9.3138719201   11.2317751734   13.3503988779
H       10.1622611516   11.3579540751   13.9838440025
C        8.6069363600   12.4047413990   12.8678118493
C        9.0790408748   13.7602227544   12.7114413365
H        9.9210195255   14.0932021327   13.2739490114
C        8.4747082059   14.6478684213   11.8209516544
H        8.8833076999   15.6281902766   11.7331998505
C        7.3396253001   14.2692431736   11.0055199392
C       11.6475995574   15.2398009179    7.6915958293
C       12.8335610509   14.9549160680    8.3785584440
C       14.0526498060   14.6449986384    7.6605227727
C       14.0542547504   14.6348608831    6.2617884470
C       12.8329976767   14.9309373926    5.5464278649
C       11.6556296353   15.2181330148    6.2204235053
C       10.3786452613   14.6849051933    8.1346083718
C       10.3327310833   13.8632589034    9.2567107113
C       11.5703849067   13.5624050563   10.0007109771
C       12.7894024296   14.0882762953    9.5665396224
C       13.9791391394   13.2547834814    9.5771148556
C       14.7657508621   13.5899617994    8.3847302294
C       15.4345167144   12.5838448389    7.7007986943
C       15.4529703479   12.5879842091    6.2247902163
C       14.7794045224   13.5867068637    5.5374961861
C       13.9817167900   13.2425690447    4.3512272542
C       12.7862688584   14.0652415589    4.3531009622
C       11.5752352217   13.5528696153    3.9140885316
C       10.3317296420   13.8528775329    4.6537537196
C       10.3835861271   14.6726157249    5.7758706274
C        9.5882366746   14.3417136839    6.9524204131
C       13.9027702657   11.9167857297   10.0030352813
C       14.6165088147   10.8741846763    9.2751100309
C       15.3717595718   11.2123061549    8.1432647508
C       12.6294042415   11.3675790276   10.4518273219
C       15.3870047824   11.2018909912    5.7832523883
C       13.9172745950   11.9155599650    3.9198329440
C       11.4923370315   12.1715960647    3.4636344338
C        9.5018020543   12.6602385834    4.6388495120
C        8.7976226103   13.1935197364    6.9494852207
C       12.4735416623    8.3018913978    7.6985938587
C       11.2867445413    8.5894607331    8.3821923558
C       10.0689036648    8.8967449084    7.6602480576
C       10.0682906143    8.9005890746    6.2608544119
C       11.2905253739    8.6004864392    5.5483003917
C       12.4681662135    8.3165352116    6.2272927477
C       13.7405829915    8.8578719634    8.1441007048
C       13.7851099403    9.6810298490    9.2671682402
C       12.5457893982    9.9840839577   10.0069293722
C       11.3280395130    9.4585754731    9.5689533646
C       10.1387878235   10.2919334887    9.5730506752
C        9.3558398678    9.9536135038    8.3802782433
C        8.6898537610   10.9566850491    7.6930211081
C        8.6720018469   10.9486767767    6.2171866921
C        9.3448273113    9.9472321406    5.5323291499
C       10.1444979573   10.2884116047    4.3460368440
C       11.3397373447    9.4652066948    4.3515063769
C       12.5538286923    9.9791728569    3.9149388610
C       13.7964056871    9.6808110006    4.6602327483
C       13.7413105371    8.8623237473    5.7842805311
C       14.5336584337    9.1974961889    6.9634988848
C       10.2139714043   11.6293184588    9.9948154990
C        9.5031630217   12.6689993757    9.2632418717
C        8.7516000038   12.3287223414    8.1324997544
C       11.4854642136   12.1795887748   10.4478938259
C        8.7379817587   12.3352940549    5.7736714363
C       10.2115871933   11.6169729594    3.9145613928
C       12.6376770617   11.3600686914    3.4649491522
C       14.6257350007   10.8748058758    4.6471703214
C       15.3254340367   10.3461196543    6.9606290282
135  
Iteration 3 Energy -4243.65432412
C       10.8846614849   16.8521401244    2.4535887081
C       11.7921079024   16.0948790240    1.6549568609
C       13.1165382749   16.4077123018    2.0786362245
C       13.0337622139   17.3596953972    3.1384741913
C       11.6572667178   17.6351095940    3.3786062930
C        9.5984410632   16.4256281803    2.7261121324
C        9.1720704319   15.2806001489    1.9477373683
H        8.1336760063   14.9670663004    1.9884379268
C       10.0540083123   14.5387341974    1.1643918288
H        9.6786795073   13.6720053826    0.6268933447
C       11.4552346320   14.8774719842    1.0754438188
C       12.5874802997   14.0359323868    0.7367232549
H       12.4269422236   13.1403078576    0.1427193921
C       13.8762728784   14.3272105063    1.1695160452
H       14.6794692338   13.6356759410    0.9297828344
C       14.1706413515   15.5127455891    1.9526720853
C       15.2792303084   15.7598793107    2.8534865951
H       16.1906754367   15.1802148389    2.7370803905
C       15.2074783283   16.6937489126    3.8824761571
H       16.0668105678   16.8246154351    4.5345873180
C       14.0089165128   17.4720964984    4.1226457103
C       13.5615289981   18.1131585053    5.3384455388
H       14.2860474732   18.3634538353    6.1083698565
C       12.2169711761   18.3923480726    5.5671909568
H       11.9446649791   18.8701732834    6.5035646496
C       11.1859356936   18.0438129387    4.6119653746
C        9.7570192777   17.7970811943    4.8567345166
C        8.9713159417   17.0060552476    3.9235737765
C        7.6209166416   16.7018540751    4.2436459866
H        7.0356101285   16.1012456279    3.5545914236
C        7.0710443964   17.1560850181    5.4216743299
C        7.8424700959   17.9213692637    6.3377462745
C        9.1572280217   18.2278932621    6.0696631202
H        9.7483623686   18.7915844564    6.7845907672
C        5.6912037535   16.9542050894    6.0648982766
H        4.8781317221   16.6587010990    5.4020344475
C        5.5588813372   18.3375232819    6.8072120889
H        5.5318456499   19.1868385997    6.1175565454
H        4.7093207616   18.3689146948    7.4960678012
C        6.9368878989   18.1949846599    7.5469377943
H        7.2377608862   19.0043824609    8.2122949811
C        6.7241111302   16.8163294837    8.1936171211
C        5.9485870114   16.0536005398    7.2842107458
C        5.6291964199   14.7413913602    7.5560217637
H        5.0722470058   14.1529077369    6.8342260723
C        6.0409846490   14.1455257659    8.7786417490
C        6.8373066381   14.9270414954    9.7131873234
C        7.1666438380   16.2661537613    9.3758200621
H        7.7817050805   16.8463300000   10.0557974695
C        6.0705498328   12.2949941095   10.3274457057
C        6.8620809029   13.0635715034   11.2468093884
C        7.5398572059   12.1530155377   12.1074674102
C        7.1615052943   10.8295626789   11.7396396160
C        6.2633712108   10.9175728888   10.6343933017
C        5.7400284218   12.7322093020    9.0590415814
C        5.3972927788   11.6810242186    8.1252784490
H        5.0084153345   11.9407630331    7.1455557011
C        5.5798073246   10.3329713696    8.4266306725
H        5.3180387522    9.5910096501    7.6769819550
C        6.1363169782    9.9055590554    9.6914791796
C        6.8332773837    8.6771687514   10.0185396135
H        6.6918854960    7.8036105223    9.3879263736
C        7.7025400969    8.5903730786   11.1008854293
H        8.1974389204    7.6432878463   11.2987949228
C        7.9831730343    9.7309013700   11.9546802093
C        9.1516823136    9.9966613071   12.7743655490
H        9.7804618923    9.1667705023   13.0855310556
C        9.5093225295   11.2865832395   13.1512221902
H       10.3945032716   11.4282430866   13.7655202327
C        8.7504059383   12.4465312065   12.7217799841
C        9.1739695327   13.8207408525   12.5816231334
H       10.0434653329   14.1713834550   13.1306096612
C        8.5155324061   14.7078679813   11.7317582853
H        8.9055200502   15.7177127573   11.6490764778
C        7.3673725014   14.3137183615   10.9419972140
C       11.6454362266   15.2461759159    7.6873181592
C       12.8241265599   14.9593404131    8.3805506740
C       14.0501283360   14.6492276368    7.6579285151
C       14.0518490232   14.6401184990    6.2588836639
C       12.8270145584   14.9370406171    5.5377599027
C       11.6507742065   15.2268711337    6.2241682851
C       10.3722938900   14.6890310529    8.1344203805
C       10.3278313549   13.8663468124    9.2594066456
C       11.5561636429   13.5679560900    9.9980827900
C       12.7755963982   14.0960106423    9.5651240073
C       13.9742198542   13.2627329930    9.5743036243
C       14.7592767873   13.5992275213    8.3861101812
C       15.4327553121   12.5922724200    7.6941439311
C       15.4495999712   12.5936157380    6.2269399417
C       14.7717260795   13.5952279739    5.5315423099
C       13.9784788017   13.2516946843    4.3504579798
C       12.7794022770   14.0781837530    4.3534808036
C       11.5629277077   13.5581610734    3.9132638484
C       10.3297406736   13.8565354085    4.6479853695
C       10.3772438395   14.6773402994    5.7752585858
C        9.5832966812   14.3458126457    6.9515973800
C       13.8985349478   11.9319345640   10.0009368007
C       14.6124241569   10.8842806258    9.2754685248
C       15.3660512669   11.2131553994    8.1442333806
C       12.6238691405   11.3781809252   10.4514343840
C       15.3809768207   11.2052918024    5.7814453528
C       13.9117736325   11.9246650944    3.9176110735
C       11.4879139071   12.1703527114    3.4617117141
C        9.4970550844   12.6630107936    4.6391546111
C        8.7921814299   13.1980704821    6.9500927711
C       12.4649316644    8.3052535148    7.6979652963
C       11.2847452813    8.5953335549    8.3870963048
C       10.0605224326    8.9025856218    7.6597687229
C       10.0614829192    8.9048040012    6.2602280697
C       11.2879230919    8.6031089048    5.5429658197
C       12.4640742838    8.3162335026    6.2348507996
C       13.7356948583    8.8636640185    8.1473109974
C       13.7774663882    9.6885453747    9.2730103952
C       12.5467480138    9.9894803290   10.0066145303
C       11.3287476028    9.4616005949    9.5700250870
C       10.1303462241   10.2946990210    9.5715583610
C        9.3504301355    9.9544232520    8.3824558363
C        8.6812329104   10.9577577198    7.6855981969
C        8.6665936632   10.9519297259    6.2188375376
C        9.3443955420    9.9475718763    5.5274117986
C       10.1408632601   10.2873869610    4.3468306165
C       11.3394406492    9.4605948330    4.3546688088
C       12.5595971960    9.9815780372    3.9160381043
C       13.7913455941    9.6844139947    4.6569504460
C       13.7390507815    8.8652604535    5.7869117464
C       14.5287321100    9.2021820945    6.9666333897
C       10.2044278091   11.6252804619    9.9924385627
C        9.4947316295   12.6692922828    9.2614367281
C        8.7465063013   12.3375673023    8.1312805584
C       11.4771345212   12.1804965680   10.4468345285
C        8.7355927435   12.3403285445    5.7699002822
C       10.2109450572   11.6153638890    3.9123463952
C       12.6358321805   11.3682636011    3.4634198846
C       14.6232707893   10.8798104336    4.6490402031
C       15.3211082263   10.3505724486    6.9641514882
135  
Iteration 4 Energy -4243.65837076
C       10.8805215399   16.8037448649    2.4454699171
C       11.8020623924   16.0982059311    1.6242658809
C       13.1236241322   16.5137427915    1.9587130342
C       13.0285558631   17.4760912704    3.0043916736
C       11.6504104856   17.6479402537    3.3129108833
C        9.6354023260   16.3057504850    2.7696210687
C        9.2457624773   15.1083249471    2.0524975483
H        8.2632343766   14.6647852276    2.1973457572
C       10.1489515069   14.4159274580    1.2502959341
H        9.8217830269   13.4728166404    0.8161356040
C       11.5204241501   14.8479485493    1.0877669100