8    
Iteration 0 Energy -78.78901860
C       -4.1349812400    0.7034220400    0.0000000000
H       -3.5365096600   -0.1651672000   -0.1796788600
H       -4.0717208400    1.3605701700   -0.8420537100
H       -5.1533858500    0.4104645800    0.1480810000
C       -3.6216390200    1.4293783200    1.2574049700
H       -3.6830679400    2.4871961500    1.1085831800
H       -4.2213341300    1.1521931600    2.0990902800
H       -2.6038422700    1.1531436000    1.4381925800
8    
Iteration 1 Energy -78.78770228
C       -4.1609411308    0.6784937795    0.0073878046
H       -3.4832873611   -0.1177545035   -0.2763384422
H       -4.1293581184    1.3477353404   -0.8439902695
H       -5.1783978544    0.3183552555    0.1012414869
C       -3.6480879585    1.4358397326    1.2820748085
H       -3.5640250793    2.5004811246    1.0998701115
H       -4.2347869461    1.2307498455    2.1694579718
H       -2.6275965014    1.1373002453    1.4899159685
8    
Iteration 2 Energy -78.78646842
C       -4.1615852199    0.6751525797    0.0135838635
H       -3.4385693271   -0.0656841541   -0.3209841130
H       -4.1986456423    1.3672626060   -0.8294642534
H       -5.1548204737    0.2527527894    0.1240027251
C       -3.6549346455    1.4365384615    1.2804620746
H       -3.4881086805    2.4909140149    1.0707286407
H       -4.2763343195    1.2900168197    2.1576873147
H       -2.6534735725    1.0842386339    1.5336031878
8    
Iteration 3 Energy -78.78719666
C       -4.1483773478    0.6853313954    0.0165894220
H       -3.3991627414   -0.0253835926   -0.3539017291
H       -4.2923217890    1.3999584800   -0.8196262620
H       -5.1035025067    0.1918566680    0.1736291722
C       -3.6481796366    1.4333850554    1.2652501089
H       -3.4290833666    2.4852891808    1.0434460679
H       -4.3283183597    1.3506673685    2.1084656208
H       -2.6774968056    1.0100632442    1.5957670393
8    
Iteration 4 Energy -78.78715085
C       -4.1446389727    0.6885438860    0.0184848692
H       -3.3841880639   -0.0010838891   -0.3739302000
H       -4.3314462359    1.4081339432   -0.8103393992
H       -5.0802978549    0.1604539716    0.1894171451
C       -3.6469668057    1.4319035121    1.2603344546
H       -3.3962945014    2.4778105239    1.0342725593
H       -4.3482195665    1.3832128206    2.0906529110
H       -2.6943373753    0.9821586680    1.6207271000
8    
Iteration 5 Energy -78.78808448
C       -4.1364835999    0.6998127057    0.0160121631
H       -3.3753664862    0.0234138914   -0.3950514396
H       -4.3833284464    1.4188330876   -0.7955529977
H       -5.0380469635    0.1197950778    0.2131204350
C       -3.6369130776    1.4269679626    1.2517278041
H       -3.3645887599    2.4675309612    1.0306924667
H       -4.3725850998    1.4300581909    2.0560080569
H       -2.7187520284    0.9445102448    1.6526960203
8    
Iteration 6 Energy -78.78890674
C       -4.1287301185    0.7104804860    0.0095655238
H       -3.3715222295    0.0430091845   -0.4158312908
H       -4.4327419561    1.4229216281   -0.7796672127
H       -4.9943064241    0.0858958545    0.2337509300
C       -3.6240418726    1.4234691764    1.2456258994
H       -3.3371524616    2.4588918081    1.0324643260
H       -4.3907881691    1.4728082937    2.0197405995
H       -2.7463613884    0.9131950596    1.6840120223
8    
Iteration 7 Energy -78.78956312
C       -4.1256073165    0.7138590441    0.0033790230
H       -3.3701931046    0.0539194993   -0.4273903462
H       -4.4566739240    1.4215051443   -0.7681595813
H       -4.9722525026    0.0702392181    0.2420763085
C       -3.6163711716    1.4238235494    1.2452469909
H       -3.3221823406    2.4536857500    1.0341328532
H       -4.3976215867    1.4937101005    2.0020789021
H       -2.7644564938    0.8997446274    1.6982635383
8    
Iteration 8 Energy -78.79039732
C       -4.1264785495    0.7119496322   -0.0066542549
H       -3.3713854434    0.0612155355   -0.4342638801
H       -4.4656421950    1.4138108884   -0.7607497436
H       -4.9640057854    0.0658847104    0.2425201912
C       -3.6094015507    1.4278143154    1.2515821394
H       -3.3136137596    2.4489674841    1.0365795976
H       -4.3973519863    1.5009236264    1.9963836989
H       -2.7771584448    0.8997537044    1.7041583560
8    
Iteration 9 Energy -78.79063340
C       -4.1305038216    0.7071535912   -0.0093449888
H       -3.3717559210    0.0610869193   -0.4329254895
H       -4.4571124106    1.4100278731   -0.7642932877
H       -4.9737667150    0.0706749534    0.2358847394
C       -3.6108264749    1.4306944353    1.2575920209
H       -3.3149176580    2.4485208371    1.0362595319
H       -4.3929735323    1.4942266023    2.0062870397
H       -2.7732028960    0.9079490199    1.7000582110
8    
Iteration 10 Energy -78.79068583
C       -4.1333304807    0.7044402230   -0.0090740924
H       -3.3712414599    0.0603280235   -0.4304777601
H       -4.4494174376    1.4095561427   -0.7671654665
H       -4.9817255461    0.0740884651    0.2316203764
C       -3.6132756081    1.4315661966    1.2605304200
H       -3.3171059992    2.4487070085    1.0348098090
H       -4.3905502913    1.4888814192    2.0139297083
H       -2.7685036290    0.9128079922    1.6953322962
8    
Iteration 11 Energy -78.79069651
C       -4.1336687325    0.7042865230   -0.0087583163
H       -3.3708499660    0.0607822890   -0.4304520162
H       -4.4490721907    1.4097925157   -0.7671388798
H       -4.9821735968    0.0738086529    0.2313257503
C       -3.6137189652    1.4314463386    1.2606919150
H       -3.3167819678    2.4485064408    1.0343455126
H       -4.3905896172    1.4889917970    2.0145248367
H       -2.7682978836    0.9127672973    1.6949663132
8    
Iteration 12 Energy -78.79070248
C       -4.1337041069    0.7043216572   -0.0086493396
H       -3.3706645674    0.0611745696   -0.4306548828
H       -4.4493981721    1.4098722135   -0.7669396499
H       -4.9819328984    0.0734331879    0.2314132569
C       -3.6138038508    1.4313722611    1.2606549494
H       -3.3163704337    2.4483278670    1.0341802439
H       -4.3907567182    1.4893967741    2.0143921266
H       -2.7685325753    0.9124936814    1.6951084721
8    
Iteration 13 Energy -78.79070603
C       -4.1336961571    0.7043457797   -0.0086263382
H       -3.3705636839    0.0614224111   -0.4308245271
H       -4.4496923275    1.4098898375   -0.7668019403
H       -4.9817121342    0.0731846447    0.2314935768
C       -3.6138107954    1.4313535449    1.2606286621
H       -3.3160828560    2.4482218868    1.0341116339
H       -4.3908678863    1.4896888086    2.0142413656
H       -2.7687377883    0.9123046293    1.6952733914
8    
Iteration 14 Energy -78.79070729
C       -4.1339244397    0.7039988680   -0.0091428832
H       -3.3706649634    0.0613628249   -0.4312043576
H       -4.4499260264    1.4095691111   -0.7671887033
H       -4.9819361092    0.0730041548    0.2310077375
C       -3.6136076128    1.4316565105    1.2611884765
H       -3.3158279566    2.4482911866    1.0343694050
H       -4.3906047356    1.4898637229    2.0147497426
H       -2.7686251567    0.9125594059    1.6957691903
8    
Iteration 15 Energy -78.79070942
C       -4.1336782386    0.7043592414   -0.0086344268
H       -3.3704769981    0.0616559880   -0.4310158710
H       -4.4500180916    1.4098836061   -0.7666715152
H       -4.9814768451    0.0729362884    0.2315724770
C       -3.6137905797    1.4313553105    1.2606143228
H       -3.3157858375    2.4481236887    1.0340655804
H       -4.3909684840    1.4899893802    2.0140824389
H       -2.7689547191    0.9121218095    1.6954761135
8    
Iteration 16 Energy -78.79071020
C       -4.1336773383    0.7043606162   -0.0086353878
H       -3.3704490609    0.0617102664   -0.4310481059
H       -4.4500810287    1.4098897957   -0.7666403410
H       -4.9814374521    0.0728932700    0.2315940720
C       -3.6137910903    1.4313566432    1.2606105335
H       -3.3157262349    2.4481031422    1.0340419450
H       -4.3909954276    1.4900386402    2.0140481530
H       -2.7690011832    0.9120789538    1.6955068712
8    
Iteration 17 Energy -78.79071066
C       -4.1336756138    0.7043600791   -0.0086338987
H       -3.3704313240    0.0617416155   -0.4310664618
H       -4.4501226401    1.4098940733   -0.7666190745
H       -4.9814115344    0.0728669414    0.2316107513
C       -3.6137904072    1.4313590208    1.2606109959
H       -3.3156917411    2.4480924063    1.0340278599
H       -4.3910087846    1.4900690133    2.0140315378
H       -2.7690269422    0.9120519698    1.6955290541
8    
Iteration 18 Energy -78.79071094
C       -4.1336763611    0.7043602014   -0.0086341240
H       -3.3704212106    0.0617614261   -0.4310769614
H       -4.4501471228    1.4098953338   -0.7666083124
H       -4.9813979162    0.0728498346    0.2316176955
C       -3.6137932375    1.4313600625    1.2606098915
H       -3.3156734507    2.4480861330    1.0340212107
H       -4.3910223896    1.4900862338    2.0140181399
H       -2.7690462432    0.9120380074    1.6955416699
