14   
Iteration 0 Energy -251.98727992
C       -2.1080000000   -0.2660000000    0.1040000000
C       -0.8240000000    0.0880000000    0.3810000000
H       -2.3580000000   -1.2630000000   -0.2010000000
H       -2.9060000000    0.4470000000    0.1680000000
H       -0.5770000000    1.0810000000    0.6940000000
C        0.2170000000   -0.8320000000    0.1940000000
C        1.6040000000   -0.4630000000    0.3630000000
H       -0.0430000000   -1.8420000000   -0.0750000000
H        1.9950000000   -0.5980000000    1.3560000000
C        2.3570000000    0.0260000000   -0.6440000000
H        1.9230000000    0.1580000000   -1.6150000000
H        4.1600000000    0.7000000000   -1.3410000000
H        4.1670000000    0.2170000000    0.2870000000
N        3.6470000000    0.4140000000   -0.5390000000
14   
Iteration 1 Energy -251.96122539
C       -2.1915316610   -0.2256356900    0.1030972288
C       -0.8587160985    0.0559686100    0.3947759792
H       -2.4589739979   -1.2099279086   -0.2239100669
H       -2.9670036583    0.5076974771    0.1839126118
H       -0.7049972554    1.0663086753    0.7215916548
C        0.2275815954   -0.8222906950    0.2500059078
C        1.6389976438   -0.4956080241    0.4601161918
H        0.0231128166   -1.8322862900   -0.0390418667
H        2.1902156950   -0.5891887888    1.3783858977
C        2.3764942229   -0.0080625075   -0.6365085791
H        1.9650077414    0.1625404653   -1.6108077412
H        4.1730289963    0.6091767032   -1.3099327623
H        4.1319580237    0.0790388134    0.3426280213
N        3.6258140300    0.2980616208   -0.5140770587
14   
Iteration 2 Energy -251.98621064
C       -2.1510888449   -0.2504367636    0.0994176649
C       -0.8377757584    0.0675801158    0.3864225554
H       -2.4134462379   -1.2400973434   -0.2167937997
H       -2.9354340997    0.4755583083    0.1696924423
H       -0.6333158103    1.0694339728    0.7074579308
C        0.2260759690   -0.8320379364    0.2178277936
C        1.6252351736   -0.4764927459    0.4077519606
H       -0.0069543271   -1.8419592566   -0.0605335564
H        2.0894449051   -0.5896606819    1.3711289744
C        2.3737549577    0.0195829846   -0.6504067123
H        1.9508985205    0.1654696031   -1.6240571021
H        4.1615064517    0.6732167275   -1.3386539129
H        4.1485694585    0.1692567277    0.3076515037
N        3.6317931572    0.3767699139   -0.5351763022
14   
Iteration 3 Energy -251.99293104
C       -2.1263375724   -0.2527141396    0.1017222378
C       -0.8280024753    0.0773967157    0.3896474843
H       -2.3879626326   -1.2423000736   -0.2183083704
H       -2.9145556541    0.4697406937    0.1751584096
H       -0.5908273767    1.0692513801    0.7153109406
C        0.2201162945   -0.8367717163    0.2146101300
C        1.6164647175   -0.4817185152    0.4061585018
H       -0.0226345254   -1.8442446325   -0.0700835657
H        2.0544985080   -0.6011227932    1.3793007919
C        2.3704855814   -0.0005362685   -0.6315462258
H        1.9222817623    0.1360528204   -1.5950713249
H        4.1763195085    0.6464753841   -1.3376449504
H        4.1839559388    0.1495831435    0.2988398779
N        3.6567438938    0.3533103322   -0.5327944159
14   
Iteration 4 Energy -251.98486416
C       -2.1137476533   -0.2588456500    0.1061432032
C       -0.8213544646    0.0893322857    0.3741830413
H       -2.3700725282   -1.2599949738   -0.1819083812
H       -2.9077141312    0.4589788684    0.1673488223
H       -0.5742393904    1.0872952277    0.6703308459
C        0.2199516129   -0.8335404439    0.2222645919
C        1.6184274695   -0.4882729890    0.3989224839
H       -0.0308043651   -1.8474828430   -0.0352213657
H        2.0372788390   -0.6506861226    1.3743947282
C        2.3711751962    0.0092108122   -0.6214164525
H        1.9194503182    0.1831456551   -1.5773706646
H        4.1843875599    0.6307638765   -1.3310839480
H        4.2072909508    0.0869065392    0.2859063497
N        3.6737888209    0.3286318422   -0.5277200648
14   
Iteration 5 Energy -251.99145168
C       -2.1197478184   -0.2566415650    0.1051288670
C       -0.8250754123    0.0841660195    0.3822461216
H       -2.3774839038   -1.2526062737   -0.1985883870
H       -2.9117915813    0.4625202753    0.1726665369
H       -0.5832734268    1.0793014305    0.6928748509
C        0.2197221308   -0.8336088763    0.2178171376
C        1.6171804795   -0.4839079638    0.4001132122
H       -0.0271826982   -1.8446027639   -0.0529782742
H        2.0427582652   -0.6258629148    1.3759358363
C        2.3714644389    0.0046354040   -0.6277600569
H        1.9234938896    0.1604783324   -1.5885594854
H        4.1815009427    0.6373656146   -1.3333784182
H        4.1952648860    0.1175500413    0.2932810438
N        3.6659623139    0.3404721118   -0.5297588084
14   
Iteration 6 Energy -251.99315641
C       -2.1210134132   -0.2568903858    0.1096719178
C       -0.8248190141    0.0828608144    0.3871316065
H       -2.3784013528   -1.2512485980   -0.1994517513
H       -2.9131132361    0.4617288861    0.1815780836
H       -0.5830071967    1.0764923275    0.7027365207
C        0.2188435190   -0.8329819355    0.2153588027
C        1.6167862517   -0.4823671852    0.3964846763
H       -0.0274158863   -1.8428244634   -0.0604017207
H        2.0353082763   -0.6187079725    1.3763839540
C        2.3772838114   -0.0013621485   -0.6325454720
H        1.9360792126    0.1493834116   -1.5972185311
H        4.1888541960    0.6275455902   -1.3312059560
H        4.1929882936    0.1157730052    0.2985504984
N        3.6686318990    0.3340527076   -0.5292027971
14   
Iteration 7 Energy -251.99382572
C       -2.1139941360   -0.2525340895    0.1143311863
C       -0.8156857844    0.0810616301    0.3923330872
H       -2.3745166679   -1.2439874521   -0.2013355273
H       -2.9036356181    0.4680991367    0.1921604580
H       -0.5741920140    1.0730740579    0.7132535329
C        0.2250345579   -0.8379134516    0.2181001329
C        1.6221715533   -0.4936897298    0.4050208018
H       -0.0216150045   -1.8455751125   -0.0653831843
H        2.0398389458   -0.6290920479    1.3859352437
C        2.3896736493   -0.0256942692   -0.6260019421
H        1.9415196495    0.1287170156   -1.5868578011
H        4.2060396142    0.5789516504   -1.3337209231
H        4.2117816745    0.0545788932    0.2920334515
N        3.6852737685    0.2856422823   -0.5315353535
14   
Iteration 8 Energy -251.99412652
C       -2.1091809001   -0.2549082066    0.1240732955
C       -0.8122499481    0.0854274958    0.3957374254
H       -2.3655464926   -1.2482021093   -0.1894962859
H       -2.9024746594    0.4615489235    0.2047584542
H       -0.5696630069    1.0776638546    0.7144888852
C        0.2277176314   -0.8324084903    0.2191988248
C        1.6280286068   -0.4978552110    0.3993072282
H       -0.0228130000   -1.8396141728   -0.0638608312
H        2.0336043435   -0.6438253695    1.3842637890
C        2.4014384183   -0.0404460061   -0.6294126315
H        1.9648249270    0.1285257847   -1.5933101251
H        4.2246885207    0.5355273505   -1.3338498603
H        4.2271866088   -0.0055301513    0.2864495315
N        3.7032002492    0.2438416899   -0.5327731432
14   
Iteration 9 Energy -251.99492286
C       -2.0877629675   -0.2433232387    0.1358952739
C       -0.7851739507    0.0836958331    0.3991789570
H       -2.3588657330   -1.2331306760   -0.1764421469
H       -2.8723881684    0.4820684776    0.2216592695
H       -0.5247004513    1.0723299016    0.7147039179
C        0.2389311948   -0.8505704618    0.2227840736
C        1.6445258135   -0.5302171233    0.4044018481
H       -0.0245052936   -1.8541058179   -0.0630050416
H        2.0534814899   -0.6873485030    1.3868317261
C        2.4221267665   -0.0942627108   -0.6281648198
H        1.9782452866    0.0999892910   -1.5840719798
H        4.2549497038    0.4305467129   -1.3537322209
H        4.2703319104   -0.1649263892    0.2471994952
N        3.7381563997    0.1322408070   -0.5523419464
14   
Iteration 10 Energy -251.99532406
C       -2.0598236507   -0.2165602941    0.1496952612
C       -0.7526372212    0.0873633888    0.4131374889
H       -2.3389922553   -1.2012826281   -0.1712948086
H       -2.8357821617    0.5178792948    0.2392264306
H       -0.4858117945    1.0730925050    0.7321280128
C        0.2605164570   -0.8593375175    0.2307335869
C        1.6739191171   -0.5740006224    0.3992077098
H       -0.0222783741   -1.8547651082   -0.0634359937
H        2.0930738521   -0.7508098882    1.3737070474
C        2.4438564310   -0.1631380447   -0.6478056874
H        1.9764835977    0.0626233714   -1.5851424370
H        4.2641703880    0.3164312898   -1.4268197839
H        4.3273167689   -0.3589296546    0.1424990590
N        3.7715883740    0.0040862133   -0.6158438579
14   
Iteration 11 Energy -251.99541863
C       -2.0454471261   -0.1960773583    0.1582873423
C       -0.7295011260    0.0783792031    0.4096640480
H       -2.3610669368   -1.1714931540   -0.1575258931
H       -2.7984174461    0.5608354644    0.2542161940
H       -0.4296478355    1.0567008220    0.7230620648
C        0.2596410700   -0.8923387050    0.2222721732
C        1.6685556232   -0.5898435049    0.3850163819
H       -0.0310177103   -1.8875675466   -0.0648801904
H        2.0941728170   -0.7551267347    1.3582110428
C        2.4269886994   -0.1748466906   -0.6706589215
H        1.9626925408    0.0384453758   -1.6123563037
H        4.2456097294    0.3337868970   -1.4446593125
H        4.3068430662   -0.3324823804    0.1282602791
N        3.7498015748    0.0150286061   -0.6376362532
14   
Iteration 12 Energy -251.99554879
C       -2.0476531503   -0.1824978369    0.1691453229
C       -0.7320414652    0.0984859787    0.4165298583
H       -2.3602664227   -1.1574105975   -0.1513041119
H       -2.8046952415    0.5687897256    0.2766107922
H       -0.4306701613    1.0740749460    0.7375985717
C        0.2625252401   -0.8654553496    0.2193269825
C        1.6787611227   -0.5868972969    0.3719336322
H       -0.0368489340   -1.8572840541   -0.0696852718
H        2.1154539031   -0.7659209299    1.3373916632
C        2.4344884749   -0.1769171321   -0.6882949813
H        1.9588443207    0.0380833627   -1.6238175954
H        4.2548867743    0.3232965470   -1.4701726204
H        4.3157351495   -0.3295480501    0.1087058819
N        3.7587980573    0.0066174168   -0.6622307321
14   
Iteration 13 Energy -251.99558549
C       -2.0363386587   -0.1500634832    0.1863031735
C       -0.7157560242    0.1128041288    0.4224873711
H       -2.3493145668   -1.1247602474   -0.1341776378
H       -2.7891206382    0.6046875852    0.3016909520
H       -0.4136140611    1.0875680635    0.7450930032
C        0.2692736844   -0.8586929892    0.2124270989
C        1.6883595399   -0.5894601383    0.3575478323
H       -0.0400931222   -1.8476664554   -0.0771053787
H        2.1252101983   -0.7794646452    1.3208119430
C        2.4452709181   -0.1832399341   -0.7024937012
H        1.9665750152    0.0367367665   -1.6351011486
H        4.2564361021    0.3035205243   -1.4956279718
H        4.3328368206   -0.3466153512    0.0869584443
N        3.7718144214   -0.0112766410   -0.6804228849
14   
Iteration 14 Energy -251.99563670
C       -2.0277895284   -0.1335353768    0.1955348927
C       -0.7057913449    0.1251325953    0.4293070423
H       -2.3550019078   -1.1034581569   -0.1257455300
H       -2.7737465062    0.6272899036    0.3138551723
H       -0.3951104796    1.0972358463    0.7517801467
C        0.2734197383   -0.8504145401    0.2130399561
C        1.6936432959   -0.5868587068    0.3529638595
H       -0.0412812517   -1.8374299506   -0.0776779684
H        2.1333118584   -0.7806789008    1.3143627792
C        2.4493577953   -0.1819186634   -0.7085562043
H        1.9740218567    0.0465366355   -1.6407307150
H        4.2691888099    0.2944179903   -1.5005014424
H        4.3328071451   -0.3659488796    0.0763035114
N        3.7768713788   -0.0209711875   -0.6900842578
14   
Iteration 15 Energy -251.99566073
C       -2.0217444497   -0.1121780659    0.1992618909
C       -0.6979348353    0.1383284666    0.4341554083
H       -2.3557526633   -1.0785517391   -0.1255861740
H       -2.7626616903    0.6531449353    0.3201137022
H       -0.3737321306    1.1052283206    0.7586375343
C        0.2740667630   -0.8429838393    0.2143916281
C        1.6947119792   -0.5831527650    0.3530761194
H       -0.0455668078   -1.8275817011   -0.0787501769
H        2.1364428652   -0.7772379112    1.3137162793
C        2.4490941539   -0.1723701171   -0.7073553580
H        1.9730857757    0.0578228279   -1.6389648290
H        4.2660575781    0.3113235020   -1.4974532929
H        4.3318371910   -0.3463371154    0.0812557578
N        3.7752540080   -0.0056502687   -0.6865820475
14   
Iteration 16 Energy -251.99567450
C       -2.0149663600   -0.0863048358    0.2062329698
C       -0.6884066123    0.1511647607    0.4381179458
H       -2.3568964023   -1.0488887583   -0.1213756580
H       -2.7492933125    0.6845197092    0.3328201538
H       -0.3586221213    1.1151737169    0.7652564774
C        0.2766211500   -0.8357554315    0.2124421204
C        1.6986975163   -0.5833490666    0.3482035141
H       -0.0496570208   -1.8175841220   -0.0827129306
H        2.1399301880   -0.7812552677    1.3084059608
C        2.4521587796   -0.1681134125   -0.7104686334
H        1.9752568228    0.0648393247   -1.6411681676
H        4.2745373284    0.3219549567   -1.4948539440
H        4.3325428785   -0.3400044929    0.0805268359
N        3.7784695310    0.0010933739   -0.6888987446
14   
Iteration 17 Energy -251.99568374
C       -2.0077195879   -0.0650989616    0.2103948366
C       -0.6793200185    0.1619583076    0.4414821118
H       -2.3592487760   -1.0227657849   -0.1215154883
H       -2.7354904271    0.7108877764    0.3430266584
H       -0.3442038005    1.1223961067    0.7738873721
C        0.2796585472   -0.8295616004    0.2093916040
C        1.7034608953   -0.5862465845    0.3451474697
H       -0.0530139247   -1.8080167715   -0.0899580224
H        2.1446625330   -0.7893692320    1.3041834454
C        2.4570582309   -0.1673993109   -0.7117075026
H        1.9803483979    0.0713560784   -1.6411341196
H        4.2751445227    0.3204682360   -1.4984100248
H        4.3411672215   -0.3512284355    0.0743207842
N        3.7843336310   -0.0026359155   -0.6901698407
14   
Iteration 18 Energy -251.99568766
C       -2.0098004128   -0.0664176984    0.2085763863
C       -0.6819687842    0.1614929592    0.4418133084
H       -2.3552179524   -1.0252763772   -0.1262380381
H       -2.7403943412    0.7070152240    0.3409099761
H       -0.3455571990    1.1206251258    0.7768788595
C        0.2770270553   -0.8297003468    0.2088073758
C        1.7009584688   -0.5871593804    0.3463126731
H       -0.0556709586   -1.8074008821   -0.0929237571
H        2.1410273105   -0.7916895496    1.3053838800
C        2.4555277241   -0.1663425892   -0.7093920353
H        1.9794909308    0.0743154959   -1.6385644174
H        4.2755909110    0.3200646586   -1.4941862368
H        4.3384632247   -0.3552528319    0.0768885632
N        3.7829503821   -0.0030694935   -0.6869746614
14   
Iteration 19 Energy -251.99569189
C       -2.0142473399   -0.0721419716    0.2053416056
C       -0.6871045838    0.1567441285    0.4414303899
H       -2.3592804332   -1.0300052585   -0.1327456842
H       -2.7453986865    0.7006461113    0.3381002789
H       -0.3530558958    1.1157786496    0.7791090517
C        0.2735498580   -0.8328521752    0.2082916633
C        1.6971366951   -0.5889469547    0.3481181581
H       -0.0574666189   -1.8103346729   -0.0958958215
H        2.1354395126   -0.7947091524    1.3076250234
C        2.4526574056   -0.1650842529   -0.7058229457
H        1.9766401291    0.0761270803   -1.6347962231
H        4.2735095630    0.3245537946   -1.4877142029
H        4.3345427989   -0.3516567909    0.0827458094
N        3.7797564242    0.0005983091   -0.6815088418
14   
Iteration 20 Energy -251.99569661
C       -2.0196520505   -0.0755139384    0.2040213111
C       -0.6929061196    0.1514201773    0.4438135297
H       -2.3656518047   -1.0307676894   -0.1404638793
H       -2.7502835473    0.6972291325    0.3398580684
H       -0.3594870234    1.1084263876    0.7875833436
C        0.2678707191   -0.8371151957    0.2063816604
C        1.6915068939   -0.5946163683    0.3486548280
H       -0.0633351130   -1.8127677389   -0.1033178290
H        2.1297269105   -0.8058147816    1.3070400537
C        2.4471177667   -0.1652591457   -0.7027017361
H        1.9718073940    0.0808169273   -1.6308066499
H        4.2682768965    0.3292604499   -1.4812441772
H        4.3290382593   -0.3535357836    0.0860735446
N        3.7742492767    0.0014995819   -0.6768539129
14   
Iteration 21 Energy -251.99569940
C       -2.0238235819   -0.0753328575    0.2071407193
C       -0.6967664699    0.1483186295    0.4486090974
H       -2.3717772743   -1.0277330132   -0.1432918884
H       -2.7532476941    0.6976193445    0.3481462264
H       -0.3620627481    1.1025544253    0.7986998027
C        0.2627451804   -0.8398255212    0.2044750578
C        1.6866344852   -0.5995675587    0.3472587227
H       -0.0697569866   -1.8132125746   -0.1108599158
H        2.1240071268   -0.8183341270    1.3043083758
C        2.4431022419   -0.1654632619   -0.7015816411
H        1.9674947753    0.0867128519   -1.6279519349
H        4.2642909481    0.3305644035   -1.4784997575
H        4.3256935843   -0.3595509713    0.0857008198
N        3.7706037024   -0.0011970169   -0.6755552255
14   
Iteration 22 Energy -251.99569995
C       -2.0249446103   -0.0757416611    0.2098953386
C       -0.6978452103    0.1478688630    0.4507600984
H       -2.3723560684   -1.0279631328   -0.1415229045
H       -2.7545941859    0.6967518835    0.3522844617
H       -0.3632029852    1.1017173547    0.8019449975
C        0.2616727049   -0.8397152670    0.2043483188
C        1.6855248965   -0.5997907617    0.3468383856
H       -0.0710701481   -1.8127076235   -0.1120080053
H        2.1242106713   -0.8203411119    1.3029429101
C        2.4416628977   -0.1649859446   -0.7017212500
H        1.9668476547    0.0888825717   -1.6280593118
H        4.2627129172    0.3310836823   -1.4784111113
H        4.3244659389   -0.3608602217    0.0850751349
N        3.7693592240   -0.0020971490   -0.6758976897
