44   
Iteration 0 Energy -2321.25208624
S        0.8154661503    1.2756241843    1.4752483914
S        2.6112812821    1.9566383214    0.7857350981
S        3.9952602116    0.5411739267    1.2745965282
O        5.1188572633    1.1357829743   -2.9413768342
O        6.4946299386   -2.8582156594   -2.4899098922
O        5.2658350854   -1.6962844341   -3.9651582835
O        0.4610777264    1.5700856594   -3.5296520011
O        1.0944997874   -2.8343406478   -0.7638464219
N        4.9017479067   -1.4040961984   -1.7899081083
C        3.9922762100    0.7003426698   -2.6996827035
C        3.7580065951   -0.6025673848   -2.0338824760
C        2.5262277404   -1.0118584387   -1.7329041814
C        1.3862171806   -0.0955010460   -1.9563574154
C        1.4951447342    0.6537282667   -3.2902381075
C        2.7798958647    1.4893646682   -3.1215075636
C        5.6239542611   -2.0635095630   -2.7407249710
C        5.9067186499   -2.4057220609   -5.0277017633
C        1.6555520629   -0.3217483451   -4.4097855141
C        1.8592319130   -1.1914913347   -5.2032730183
C        2.1069310344   -2.4011745824   -5.9192354619
C        2.3882029227   -3.5380941764   -5.2625561825
C        2.4717639637   -3.4994381105   -3.8465909554
C        2.4426666994   -3.1822382435   -2.6951222294
C        2.3165798873   -2.5012231068   -1.3954440934
C        0.4640617279    0.2353422560   -1.0397421090
C        0.4692849803   -0.1523470257    0.3944640149
C        4.1668587958    0.7264919205    3.0485429771
H       -0.2588903769    1.1630688446   -3.5980561135
H        0.4931589922   -2.8866391491   -1.3338806921
H        5.1651147858   -1.4825429507   -0.9644982851
H        2.9761142113    1.9338999295   -3.9719989947
H        2.6135195332    2.1874330989   -2.4557073361
H        5.5851572423   -2.0714679002   -5.8804734314
H        5.7037845503   -3.3516385633   -4.9547381765
H        6.8661776211   -2.2761134271   -4.9729790732
H        2.0718647674   -2.4011745824   -6.8586521391
H        2.5262277404   -4.3407586101   -5.7299847839
H        3.0604220025   -2.7968222013   -0.8140086379
H       -0.2551596252    0.7640103670   -1.3361599295
H        1.1489635642   -0.8413204996    0.5426724253
H       -0.4021374474   -0.5332155895    0.6315976715
H        4.8144561139    0.0852694694    3.3791633537
H        3.3096126249    0.5684597970    3.4749293110
H        4.4682749439    1.6246583997    3.2537553144
44   
Iteration 1 Energy -2321.46861261
S        0.8322086667    1.2366334302    1.4665888486
S        2.6277518397    1.9101506316    0.7301779872
S        4.0275424373    0.4701022505    1.1565196467
O        5.1172753037    1.1503501263   -2.8803555000
O        6.4865135305   -2.8344534397   -2.4199398955
O        5.2287963669   -1.6531085181   -3.8997634145
O        0.4589779065    1.5694913633   -3.5799397112
O        1.0485649753   -2.7787635526   -0.7415682801
N        4.8919573803   -1.3713132142   -1.7152845397
C        3.9874987470    0.7310518002   -2.6702544754
C        3.7548974364   -0.5701022906   -1.9937408369
C        2.5081929034   -0.9881504237   -1.7102561110
C        1.3693437030   -0.0790632966   -1.9713699796
C        1.4997245383    0.6621311192   -3.3107259485
C        2.7765048788    1.5138109015   -3.1285645558
C        5.6123910919   -2.0326753644   -2.6760073214
C        5.8537584537   -2.3576949676   -4.9797018769
C        1.6809115195   -0.3216659606   -4.4113813171
C        1.8982255976   -1.2105305617   -5.2020404898
C        2.1558999343   -2.4222284705   -5.9086804358
C        2.4291483420   -3.5594402021   -5.2253726382
C        2.4838967660   -3.5055389482   -3.8058378180
C        2.4362142184   -3.1717666103   -2.6447185900
C        2.2867676918   -2.4739587118   -1.3543745355
C        0.4284746560    0.2534145209   -1.0751129313
C        0.4637041513   -0.1725236567    0.3555595099
C        4.2610236345    0.6463349456    2.9395506423
H       -0.3323231365    1.1114294834   -3.6679639570
H        0.3991516850   -2.8372023426   -1.3880793325
H        5.1781275679   -1.4583998934   -0.8041988843
H        3.0029627405    1.9788947547   -4.0319702763
H        2.5751695496    2.2597771706   -2.4300224927
H        5.4778415116   -1.9773859297   -5.8678527449
H        5.6376850578   -3.3699567403   -4.9082364257
H        6.8807296362   -2.2178475674   -4.9412587282
H        2.1317622061   -2.4306528471   -6.9321056334
H        2.5888926364   -4.4398207902   -5.7213207357
H        3.0502477469   -2.7828059167   -0.7130966744
H       -0.3538285778    0.8359235865   -1.3865292515
H        1.1900533321   -0.9032542411    0.4920449225
H       -0.4556246046   -0.5790450292    0.6291922719
H        4.9614209983   -0.0516646334    3.2530420087
H        3.3593784297    0.4769860938    3.4241451137
H        4.6000585446    1.6022739530    3.1548343609
44   
Iteration 2 Energy -2321.49559664
S        0.8028734549    1.3188273632    1.4777850524
S        2.6656675066    1.9165784243    0.8252722851
S        4.0024490937    0.4631656442    1.4170219110
O        5.1378578418    1.1459185255   -2.9791305986
O        6.5476274115   -2.8470742871   -2.5487970907
O        5.2613145989   -1.6973529296   -4.0191556109
O        0.4606899739    1.5582513980   -3.5487614364
O        1.1294107446   -2.8038114901   -0.7386033418
N        4.9474385247   -1.3827709344   -1.8225450374
C        4.0189012099    0.7230179886   -2.7404506966
C        3.8019808041   -0.5829928163   -2.0626294424
C        2.5613225713   -1.0081628772   -1.7431986301
C        1.4160534639   -0.0964958371   -1.9693728657
C        1.5124078567    0.6504956788   -3.3107521125
C        2.7921424163    1.5060282417   -3.1638876223
C        5.6611707800   -2.0510683664   -2.7880284468
C        5.8837446771   -2.4194535770   -5.0891562927
C        1.6611502302   -0.3273965988   -4.4157836267
C        1.8529331430   -1.2171537169   -5.2165601480
C        2.0824093952   -2.4236160465   -5.9361177947
C        2.3743494936   -3.5682684406   -5.2661265657
C        2.4707640154   -3.5199625823   -3.8497557189
C        2.4585071033   -3.1906177764   -2.6829970596
C        2.3492348398   -2.4979707168   -1.3863226759
C        0.4928750019    0.2427137500   -1.0539948358
C        0.4520118036   -0.1260690565    0.3969034247
C        4.1302420712    0.7397274721    3.2056739776
H       -0.3472336246    1.0818914454   -3.6187029485
H        0.4507286075   -2.8578469084   -1.3866515244
H        5.2636376910   -1.4703254109   -0.8989521648
H        2.9991606613    1.9842820621   -4.0889548564
H        2.6012849503    2.2630219254   -2.4428101932
H        5.4809125582   -2.0450906380   -5.9927467712
H        5.6726811811   -3.4534628532   -4.9962421812
H        6.9315221278   -2.2675412253   -5.0648759922
H        2.0245499926   -2.4258237136   -6.9825672089
H        2.5203210144   -4.4675936548   -5.7827950267
H        3.1413188116   -2.8161320393   -0.7529382860
H       -0.2924332632    0.8488863198   -1.3916143613
H        1.1603589039   -0.8826398143    0.6097912861
H       -0.5095807461   -0.4982905339    0.6537434575
H        4.8050585024    0.0267059817    3.6038104173
H        3.1773924193    0.6160215912    3.6518131427
H        4.4906621972    1.7171930278    3.3941931734
44   
Iteration 3 Energy -2321.50729692
S        0.8497772036    1.2152280441    1.4509641554
S        2.6604685022    1.8476590705    0.6654307116
S        4.0427474386    0.3518996595    1.0444395955
O        5.0973571896    1.1969682748   -2.8512688565
O        6.5050370142   -2.7669420006   -2.3452770223
O        5.2235854636   -1.6252482586   -3.8562888445
O        0.4395792429    1.5681295003   -3.6246840849
O        1.0125803177   -2.7241647320   -0.7123280067
N        4.8760605259   -1.3135309900   -1.6727640064
C        3.9728732183    0.7740364112   -2.6586216789
C        3.7372069449   -0.5264382783   -1.9703582030
C        2.4856086182   -0.9609868567   -1.6948222734
C        1.3468936775   -0.0619067978   -1.9842518022
C        1.4910059339    0.6713761576   -3.3307360485
C        2.7560267628    1.5422081741   -3.1466450128
C        5.6183433787   -1.9804464535   -2.6179952651
C        5.8640487006   -2.3375842997   -4.9212814020
C        1.6843096622   -0.3203055742   -4.4098713321
C        1.9068612335   -1.2256002642   -5.1881228440
C        2.1687119558   -2.4393078819   -5.8775645796
C        2.4396928019   -3.5741829247   -5.1763241108
C        2.4779606943   -3.5056501496   -3.7594309746
C        2.4218319501   -3.1578750521   -2.5968700011
C        2.2593854281   -2.4434690340   -1.3188703966
C        0.3929923015    0.2755154406   -1.1057138454
C        0.4459151941   -0.1781119796    0.3174329948
C        4.3399079045    0.5298727185    2.8333372134
H       -0.3751103091    1.0645485966   -3.7232529733
H        0.3501236857   -2.7850735544   -1.4070566191
H        5.1743573041   -1.3962851897   -0.7202463921
H        3.0042186736    2.0196772112   -4.0857049610
H        2.5207210118    2.3207063457   -2.4298331529
H        5.4483563394   -1.9484342343   -5.8374985213
H        5.6601153921   -3.3959735448   -4.8357611026
H        6.9315308045   -2.1719860045   -4.8900384066
H        2.1490985223   -2.4588602515   -6.9499273921
H        2.6137119046   -4.5017620633   -5.6848794469
H        3.0319759516   -2.7570243287   -0.6294378893
H       -0.4199462777    0.9024116127   -1.4181930566
H        1.1929979733   -0.9442485216    0.4506649135
H       -0.5074640721   -0.5874197394    0.6292661944
H        5.0579033149   -0.2244045919    3.1248573572
H        3.4145210256    0.3781370137    3.3711575363
H        4.7339914952    1.5125913128    3.0483988024
44   
Iteration 4 Energy -2321.51201450
S        0.8086062065    1.3240047884    1.4497146751
S        2.7046951848    1.8704999124    0.7979549264
S        4.0056486549    0.3774944842    1.4251133884
O        5.1594346672    1.1500187685   -2.9585937451
O        6.5491731129   -2.8216984130   -2.5554066939
O        5.2024245084   -1.6581101629   -3.9973033191
O        0.4772000615    1.5421632497   -3.5889872545
O        1.1293595729   -2.7714645457   -0.7155071940
N        4.9584925249   -1.3681782493   -1.7985131643
C        4.0380167501    0.7348464815   -2.7363826702
C        3.8171214757   -0.5703096117   -2.0495629653
C        2.5731016765   -1.0015046330   -1.7348381228
C        1.4278699535   -0.0959462496   -1.9814892080
C        1.5379924767    0.6424477648   -3.3304730599
C        2.8089825428    1.5109869407   -3.1839360297
C        5.6560001959   -2.0284492946   -2.7808982537
C        5.7887808923   -2.3607977003   -5.0981764848
C        1.6939111248   -0.3434010403   -4.4177940780
C        1.8863079981   -1.2462894807   -5.2066856573
C        2.1152509561   -2.4549165638   -5.9130855227
C        2.4035081631   -3.5957053583   -5.2279290480
C        2.4883456881   -3.5345335072   -3.8138083154
C        2.4720575547   -3.1940890029   -2.6479627348
C        2.3557347100   -2.4878579354   -1.3617823784
C        0.4918377634    0.2545745829   -1.0865441942
C        0.4422276847   -0.1213991908    0.3604040816
C        4.1383455131    0.6989939059    3.2176879333
H       -0.3443714333    1.0288651781   -3.6671700808
H        0.4413732499   -2.8245431149   -1.3983907486
H        5.2990585224   -1.4660083769   -0.8526132670
H        3.0339933427    1.9963614993   -4.1341466718
H        2.5932050526    2.2917233372   -2.4506458160
H        5.3224423033   -1.9528075900   -5.9913586172
H        5.5845296251   -3.4284093751   -5.0164874982
H        6.8657704448   -2.1981947138   -5.1194047005
H        2.0584738763   -2.4668836650   -6.9946791625
H        2.5577539674   -4.5299944080   -5.7522965046
H        3.1522745265   -2.8096902646   -0.6917270645
H       -0.3061036905    0.8996356548   -1.4344058025
H        1.1524677509   -0.9074563193    0.5960210892
H       -0.5517534015   -0.4779709403    0.6376172649
H        4.8092412550   -0.0521842013    3.6352903262
H        3.1555149035    0.6095195463    3.6796086077
H        4.5435740649    1.6943997983    3.3936027070
44   
Iteration 5 Energy -2321.51254417
S        0.8894201151    1.3849559377    1.4257633228
S        2.8519320836    1.6920366104    0.7891857216
S        3.9482944533    0.0388306536    1.4302259885
O        5.0406435145    1.3235456606   -3.0587637852
O        6.6895952516   -2.5881288940   -2.4746871095
O        5.3445474814   -1.7334733746   -4.0485330468
O        0.3340046197    1.5192491695   -3.6288430134
O        1.1839662320   -2.6815336999   -0.6501341079
N        4.9399892220   -1.2049131180   -1.8801736667
C        3.9393764831    0.8630621141   -2.8223785423
C        3.7702500871   -0.4429445433   -2.1159271084
C        2.5483806212   -0.9094890708   -1.7668686933
C        1.3721447253   -0.0427663149   -2.0057390184
C        1.4364029442    0.6662929684   -3.3746737784
C        2.6771043761    1.5817921282   -3.2795031141
C        5.7389710253   -1.8912053137   -2.7661896771
C        6.0900708064   -2.4983518491   -5.0004317624
C        1.5817792075   -0.3426387668   -4.4394421567
C        1.7583044813   -1.2671157696   -5.2056714121
C        1.9719700245   -2.4934895967   -5.8834560972
C        2.3089007469   -3.6079691806   -5.1783281142
C        2.4402179200   -3.5064177291   -3.7708073573
C        2.4628645379   -3.1342981446   -2.6153105532
C        2.3813438882   -2.3919951038   -1.3483692852
C        0.4532275766    0.3225205460   -1.0979456662
C        0.3805327478   -0.0349509966    0.3510039110
C        4.1965315301    0.4011125409    3.2063455986
H       -0.4571014032    0.9564796503   -3.7052027485
H        0.4757654072   -2.7467237878   -1.3138045816
H        5.2764628255   -1.2450460170   -0.9269265414
H        2.8783162946    2.0609995950   -4.2418461736
H        2.4345541290    2.3647808874   -2.5515928892
H        5.6482957329   -2.2584441806   -5.9676431101
H        5.9946068067   -3.5679445575   -4.7936571975
H        7.1461052405   -2.2178374209   -4.9761721831
H        1.8698523668   -2.5393271075   -6.9649679797
H        2.4700291678   -4.5553823130   -5.6852453278
H        3.1955776643   -2.6732829317   -0.6761011364
H       -0.2857076119    1.0509309839   -1.4230185238
H        1.0119129044   -0.8814772284    0.6108084062
H       -0.6419201646   -0.2749588678    0.6626085732
H        4.7629638672   -0.4369272577    3.6229175660
H        3.2281532535    0.4718433432    3.7080797573
H        4.7592388640    1.3283422900    3.3354455139
44   
Iteration 6 Energy -2321.51559644
S        0.8865523157    1.3983348687    1.3888829153
S        2.8544004743    1.6876325539    0.7534865006
S        3.9337728167    0.0204112841    1.3926604693
O        5.0900305320    1.2915104398   -2.9914156480
O        6.6599791090   -2.5832123830   -2.4858023992
O        5.2093464925   -1.6559387070   -3.9870061955
O        0.3960549003    1.4981482582   -3.6718791846
O        1.1689301668   -2.6847019674   -0.6381101501
N        4.9521436226   -1.2224441781   -1.8068876715
C        3.9807438043    0.8388956789   -2.7790122276
C        3.7891661087   -0.4605977475   -2.0668315008
C        2.5599451539   -0.9222121921   -1.7395978581
C        1.3933683337   -0.0516997538   -2.0128914546
C        1.4921951733    0.6451155059   -3.3865333930
C        2.7323197127    1.5581756400   -3.2730520337
C        5.7034042778   -1.8818516560   -2.7485490065
C        5.8704011850   -2.3715254803   -5.0337908784
C        1.6548581231   -0.3741712121   -4.4380860025
C        1.8438527814   -1.3063890917   -5.1920167672
C        2.0733087683   -2.5377172768   -5.8553714492
C        2.3940404449   -3.6462544056   -5.1336897003
C        2.4929907687   -3.5330418642   -3.7245095559
C        2.4914381886   -3.1525138893   -2.5713971480
C        2.3823687572   -2.4011513779   -1.3129853142
C        0.4557896267    0.3296642807   -1.1317894471
C        0.3748136623   -0.0241845785    0.3155471585
C        4.1963779737    0.3793540864    3.1679858132
H       -0.3912036597    0.9337861664   -3.7650701499
H        0.4753098635   -2.7506516596   -1.3159772683
H        5.3045336522   -1.2779028134   -0.8603212330
H        2.9585187243    2.0292227833   -4.2340391832
H        2.4745511754    2.3473303527   -2.5563119739
H        5.3525187628   -2.0783022658   -5.9474903475
H        5.7842485034   -3.4505823804   -4.8768890669
H        6.9274334332   -2.0971598126   -5.0815162018
H        1.9944492213   -2.5923634675   -6.9385020489
H        2.5678950626   -4.5975349838   -5.6292173152
H        3.1793319732   -2.6769841754   -0.6177705428
H       -0.2694875187    1.0657528782   -1.4708560659
H        0.9992486896   -0.8741746807    0.5815764486
H       -0.6501510687   -0.2525886924    0.6291404572
H        4.7535641565   -0.4676814316    3.5797451696
H        3.2315604717    0.4615624787    3.6751510271
H        4.7729573198    1.2983787926    3.2950193214
44   
Iteration 7 Energy -2321.51505586
S        0.8547167854    1.5048105124    1.3312989405
S        2.8106163519    1.8136478964    0.6575871001
S        3.8868565023    0.1037197062    1.1880638991
O        5.1356380056    1.2059931356   -2.7919135603
O        6.6552270412   -2.5566173642   -2.6017736576
O        5.0945275634   -1.6053787697   -3.9380700772
O        0.4714256798    1.4749364289   -3.6625293089
O        1.0882313550   -2.7493439299   -0.6375645340
N        4.9263781283   -1.3281794907   -1.7127964667
C        4.0112573463    0.7673155346   -2.6400123692
C        3.7778047350   -0.5418836602   -1.9609483090
C        2.5339274235   -0.9906535405   -1.6756934064
C        1.3909443548   -0.0965079004   -1.9817481636
C        1.5509701681    0.6067880245   -3.3476417780
C        2.7943082261    1.5050608174   -3.1841557473
C        5.6502032553   -1.8881597325   -2.7369423265
C        5.7632942933   -2.1862578496   -5.0606646143
C        1.7290523574   -0.4087992861   -4.3989442392
C        1.9248795021   -1.3399027547   -5.1525686325
C        2.1666913722   -2.5666768982   -5.8198383004
C        2.4522684747   -3.6841999184   -5.0970278039
C        2.5024215704   -3.5836258757   -3.6845312698
C        2.4706439868   -3.2131670948   -2.5285379651
C        2.3285004406   -2.4713394022   -1.2698241446
C        0.4295727802    0.3167213430   -1.1405894033
C        0.3438686897    0.0302165606    0.3187238500
C        4.2341066784    0.3825700003    2.9638423693
H       -0.3068639468    0.9151298753   -3.8272150304
H        0.4089489202   -2.7655633036   -1.3324486050
H        5.3021232638   -1.4296341672   -0.7790686827
H        3.0670524586    1.9834929339   -4.1296416962
H        2.5147646333    2.2883208713   -2.4673910322
H        5.1903469462   -1.8662441456   -5.9322862742
H        5.7631799350   -3.2781973840   -4.9849208346
H        6.7958744115   -1.8307509489   -5.1224698213
H        2.1189525057   -2.6118731012   -6.9058928106
H        2.6410611538   -4.6320653796   -5.5950702437
H        3.0951565841   -2.7574328779   -0.5447593224
H       -0.2633079834    1.0672845511   -1.5159561376
H        0.9570555276   -0.8145809566    0.6256945804
H       -0.6850641005   -0.1600250265    0.6478890797
H        4.7900991770   -0.4940901645    3.3128457763
H        3.2935124365    0.4596047279    3.5163043283
H        4.8366470593    1.2832799683    3.1032155260
44   
Iteration 8 Energy -2321.51658585
S        0.8679429325    1.4672396235    1.3534850965
S        2.8319565323    1.7944910648    0.7123690365
S        3.9152092891    0.1033287656    1.2854271665
O        5.1176299907    1.2274898584   -2.8515417697
O        6.6932562848   -2.5547691440   -2.5456173163
O        5.1587915715   -1.6450464839   -3.9689689022
O        0.4433083641    1.4819183650   -3.6641896534
O        1.0993594022   -2.7147472378   -0.6382996863
N        4.9306277308   -1.3163862078   -1.7669560253
C        3.9976585925    0.7825553291   -2.6860693027
C        3.7790088376   -0.5290284295   -2.0048760194
C        2.5384130164   -0.9781589600   -1.7041328347
C        1.3889188671   -0.0902822741   -1.9942044015
C        1.5287504075    0.6155335514   -3.3623604198
C        2.7713923711    1.5164716149   -3.2143765898
C        5.6907137765   -1.8999560587   -2.7508354899
C        5.8562470719   -2.2412415992   -5.0653115298
C        1.6932395751   -0.3998341751   -4.4163196476
C        1.8722331992   -1.3334506980   -5.1710726561
C        2.0964867694   -2.5636795332   -5.8383890590
C        2.3892908166   -3.6798742597   -5.1160921645
C        2.4618646555   -3.5762159763   -3.7045920284
C        2.4516539941   -3.2024693155   -2.5491962774
C        2.3331021854   -2.4543496995   -1.2915496207
C        0.4361479411    0.3108449301   -1.1387069136
C        0.3618175609    0.0064152305    0.3180067944
C        4.2236627882    0.4071857715    3.0641578229
H       -0.3352032925    0.9216064403   -3.8234306435
H        0.4085630837   -2.7239580603   -1.3213123775
H        5.2966265997   -1.4013768565   -0.8284804181
H        3.0303755168    1.9956332578   -4.1625778110
H        2.4995670839    2.2983101782   -2.4940094378
H        5.3000376743   -1.9434431386   -5.9547897425
H        5.8644227734   -3.3308565327   -4.9683720831
H        6.8860740818   -1.8771786709   -5.1112517611
H        2.0308293247   -2.6122054300   -6.9227738761
H        2.5657083950   -4.6296079593   -5.6138258944
H        3.1075291976   -2.7418600393   -0.5763364231
H       -0.2625944255    1.0611466341   -1.5017384790
H        0.9764368147   -0.8422941231    0.6117649757
H       -0.6664543012   -0.1879124203    0.6452256675
H        4.7814971087   -0.4586301717    3.4350680535
H        3.2722046582    0.4810332967    3.5969269871
H        4.8135672213    1.3153515036    3.2041545364
44   
Iteration 9 Energy -2321.51631712
S        0.9179581170    1.4128049623    1.3308580573
S        2.9091739433    1.6413676729    0.7269807177
S        3.9312989903   -0.0261729534    1.4601626031
O        5.1469182108    1.2189711333   -2.8826420707
O        6.7314337837   -2.4599742209   -2.6532495085
O        5.1000323527   -1.6295997661   -3.9947810215
O        0.4796610638    1.4751600108   -3.7291203439
O        1.1035689355   -2.6471756355   -0.5887227114
N        4.9390913306   -1.3229954469   -1.7754656324
C        4.0264483538    0.7722602654   -2.7248331309
C        3.7966040716   -0.5282656419   -2.0251825407
C        2.5531847764   -0.9611411951   -1.7146822022
C        1.4115316660   -0.0721564897   -2.0250953511
C        1.5596719101    0.6065361094   -3.4077063714
C        2.8074302033    1.5005506823   -3.2774809231
C        5.6912619960   -1.8495804487   -2.7972703822
C        5.8004431906   -2.1654687835   -5.1201342302
C        1.7121313849   -0.4334662928   -4.4385657549
C        1.8703203485   -1.3905983186   -5.1680677326
C        2.0765462790   -2.6417696915   -5.8016891743
C        2.3566263748   -3.7431432176   -5.0518844776
C        2.4331457757   -3.6068194641   -3.6432899083
C        2.4363974879   -3.2058169709   -2.4970195777
C        2.3355150057   -2.4217403073   -1.2606702556
C        0.4477452919    0.3342047372   -1.1847462514
C        0.3634456792   -0.0048147098    0.2625502947
C        4.1906983273    0.4003489293    3.2213748652
H       -0.2884976665    0.9153368132   -3.9297938682
H        0.4018910648   -2.6190849852   -1.2590723423
H        5.3301945338   -1.3909907947   -0.8464123563
H        3.0740670461    1.9548804562   -4.2347721126
H        2.5400984562    2.3009134204   -2.5766551319
H        5.1897532894   -1.9121777167   -5.9867318082
H        5.9014086687   -3.2504715710   -5.0294610678
H        6.7943788152   -1.7189393571   -5.2036393904
H        2.0048422670   -2.7185784374   -6.8833528573
H        2.5211173098   -4.7061982721   -5.5261619712
H        3.1087628523   -2.6978853246   -0.5408483287
H       -0.2261275439    1.1075209049   -1.5442946699
H        0.9487155142   -0.8810846097    0.5335776129
H       -0.6705771927   -0.1641274065    0.5898296256
H        4.7121701942   -0.4496618889    3.6719362618
H        3.2262489566    0.5368405499    3.7156882566
H        4.8011404123    1.2999452449    3.3145658725
44   
Iteration 10 Energy -2321.51723351
S        0.9102359053    1.4484895636    1.3321230801
S        2.8934597597    1.6567210299    0.6979883331
S        3.9151615958   -0.0235833541    1.4009365086
O        5.1244466214    1.2327903744   -2.8843526523
O        6.7506718654   -2.4650349439   -2.5766229192
O        5.1521358895   -1.6601736362   -3.9894080892
O        0.4507055061    1.4823845207   -3.6974509193
O        1.1181105875   -2.6825386935   -0.5943799212
N        4.9296859573   -1.3199117455   -1.7867678284
C        4.0063725245    0.7807171780   -2.7234325331
C        3.7853658753   -0.5248658038   -2.0304849771
C        2.5451720213   -0.9628764562   -1.7152156422
C        1.3988942818   -0.0723787181   -2.0110062928
C        1.5342847932    0.6129543794   -3.3912225187
C        2.7815438067    1.5082376268   -3.2639568924
C        5.7151954727   -1.8618995872   -2.7752861395
C        5.8807445787   -2.2103468293   -5.0893020523
C        1.6815070602   -0.4191750829   -4.4305355456
C        1.8361141197   -1.3698843345   -5.1690916116
C        2.0439302941   -2.6141471437   -5.8153291484
C        2.3361313463   -3.7191846506   -5.0761319177
C        2.4241098741   -3.5928086653   -3.6673526772
C        2.4352885341   -3.2027426108   -2.5174016599
C        2.3408608872   -2.4311701740   -1.2724516546
C        0.4400045070    0.3351791009   -1.1632611701
C        0.3485125423    0.0168593354    0.2888176251
C        4.2059201270    0.3886662338    3.1602442449
H       -0.3178922325    0.9231393490   -3.8987650955
H        0.4109576517   -2.6517892049   -1.2592853851
H        5.3091597251   -1.3782676363   -0.8520530291
H        3.0403627057    1.9688719835   -4.2203116794
H        2.5176518874    2.3040829693   -2.5567270219
H        5.2898019689   -1.9704869372   -5.9732613194
H        5.9819483864   -3.2935688779   -4.9805924129
H        6.8752162244   -1.7621202552   -5.1556103520
H        1.9645238724   -2.6825823144   -6.8969930747
H        2.5024492751   -4.6776632317   -5.5589637779
H        3.1228556121   -2.7088110013   -0.5628906823
H       -0.2344862515    1.1051821568   -1.5283824760
H        0.9330013180   -0.8549582859    0.5723121744
H       -0.6854211841   -0.1378101249    0.6188106681
H        4.7285420485   -0.4679115052    3.5966301646
H        3.2505420720    0.5287735883    3.6708716262
H        4.8240923678    1.2833843740    3.2495753054
44   
Iteration 11 Energy -2321.51761636
S        0.8607956765    1.4769786143    1.3461974925
S        2.8369238138    1.7872065736    0.7346980889
S        3.9091666233    0.0982013653    1.3313952069
O        5.1533230942    1.1782317144   -2.8750404952
O        6.7892632220   -2.4505294447   -2.5750785173
O        5.1718118558   -1.6702391852   -3.9875095820
O        0.4799868018    1.4913524062   -3.6799303303
O        1.1089682481   -2.6787277192   -0.5760366235
N        4.9307664771   -1.3692965493   -1.7854107181
C        4.0290636486    0.7390478792   -2.7212991376
C        3.7940481148   -0.5642748321   -2.0317747175
C        2.5490938727   -0.9830152639   -1.7100236856
C        1.4105984904   -0.0811972009   -1.9979696909
C        1.5509988632    0.6041689423   -3.3789807230
C        2.8122834260    1.4813160838   -3.2594860673
C        5.7382243779   -1.8756229976   -2.7753647810
C        5.9215043814   -2.1763126989   -5.0942097587
C        1.6790428958   -0.4289403475   -4.4189183435
C        1.8124600144   -1.3821819032   -5.1584205422
C        2.0014464233   -2.6278801510   -5.8078603923
C        2.2834269955   -3.7359059377   -5.0693006563
C        2.3783649485   -3.6085843742   -3.6612058347
C        2.4039608631   -3.2197158202   -2.5110602216
C        2.3298486373   -2.4468185513   -1.2648211780
C        0.4483391319    0.3245374281   -1.1529429210
C        0.3530856115    0.0211898469    0.3028026678
C        4.1851932751    0.4053711961    3.1139052640
H       -0.2887027350    0.9455468978   -3.9149124344
H        0.3931857444   -2.6000937949   -1.2280738568
H        5.3198016630   -1.4078983294   -0.8532594205
H        3.0738278534    1.9330825014   -4.2192809807
H        2.5645826934    2.2859382699   -2.5562120340
H        5.3250016382   -1.9421717977   -5.9760490670
H        6.0598585735   -3.2568673957   -5.0019294299
H        6.9000002507   -1.6927143242   -5.1503828524
H        1.9158306578   -2.6947255201   -6.8890978821
H        2.4347076801   -4.6971051082   -5.5516800087
H        3.1151964176   -2.7336053106   -0.5631134886
H       -0.2457105490    1.0686187980   -1.5346047914
H        0.9552977385   -0.8348548641    0.5981424017
H       -0.6807103656   -0.1582333490    0.6203429761
H        4.7324834081   -0.4611302641    3.4972553056
H        3.2252402172    0.4847833981    3.6289451031
H        4.7759907103    1.3108129317    3.2615851002
44   
Iteration 12 Energy -2321.51807240
S        0.8924098916    1.4894503344    1.3187309421
S        2.8638354702    1.7599124826    0.6724842532
S        3.9269356639    0.0806263694    1.3109944418
O        5.1484381391    1.1615549089   -2.8208367010
O        6.8144120991   -2.3789429120   -2.5638363637
O        5.1391515327   -1.7077245957   -3.9628061777
O        0.4885039079    1.4887749784   -3.6837200868
O        1.0738102191   -2.7003572118   -0.5821361571
N        4.9012196766   -1.4040607599   -1.7606218162
C        4.0221260083    0.7190949243   -2.6915031025
C        3.7744687424   -0.5882092490   -2.0140698842
C        2.5261176189   -0.9999266186   -1.6971400374
C        1.3964200356   -0.0929211305   -1.9948050786
C        1.5514780901    0.5936509948   -3.3751616928
C        2.8154384203    1.4644625963   -3.2458729401
C        5.7337869826   -1.8597109402   -2.7558127648
C        5.9065311139   -2.1776603695   -5.0732458440