58   
Iteration 0 Energy -1875.18103178
C       -1.5982280000   -2.9490360000    3.2500000000
C       -4.0005400000   -2.9065270000    3.2500000000
C       -4.0107280000   -1.5698660000    3.2500000000
C       -2.7192980000   -0.9187180000    3.2500000000
N       -2.8308990000   -3.5868360000    3.2500000000
N       -1.5949260000   -1.5998660000    3.2500000000
N       -2.6531990000    0.4024280000    3.2500000000
O       -0.5980710000   -3.6295230000    3.2500000000
H       -2.8066410000   -4.5810390000    3.2500000000
H       -4.8972920000   -3.4971900000    3.2500000000
H       -4.9235800000   -1.0089750000    3.2500000000
H       -3.4794940000    0.9500750000    3.2500000000
H       -1.7581040000    0.8646590000    3.2500000000
C        1.0692420000    1.1086750000    3.2500000000
C        2.2854260000   -1.0221180000    3.2500000000
C        3.4550460000    0.8444100000    3.2500000000
C        2.3724120000    1.6891490000    3.2500000000
C        4.0586690000    2.9492050000    3.2500000000
N        1.1423840000   -0.2839060000    3.2500000000
N        3.4793830000   -0.5000700000    3.2500000000
N        2.7838090000    3.0076580000    3.2500000000
N        4.5367780000    1.6576590000    3.2500000000
N        2.1345620000   -2.3493720000    3.2500000000
O       -0.0130090000    1.6513790000    3.2500000000
H        0.2550220000   -0.7614500000    3.2500000000
H        4.7229940000    3.7894010000    3.2500000000
H        5.4838790000    1.3605800000    3.2500000000
H        2.9609760000   -2.8966530000    3.2500000000
H        1.2381640000   -2.7944260000    3.2500000000
C       -1.5166980000    0.2684520000    0.0000000000
C       -1.2481620000   -2.1702510000    0.0000000000
C       -3.2915230000   -1.3476830000    0.0000000000
C       -2.9121790000   -0.0279190000    0.0000000000
C       -5.0170310000    0.0003310000    0.0000000000
N       -0.7573320000   -0.9011610000    0.0000000000
N       -2.5209460000   -2.4496950000    0.0000000000
N       -4.0200060000    0.7969640000    0.0000000000
N       -4.6446780000   -1.3255770000    0.0000000000
N       -0.3459700000   -3.1553460000    0.0000000000
O       -0.9601320000    1.3436400000    0.0000000000
H        0.2412520000   -0.7659240000    0.0000000000
H       -6.0483360000    0.2895830000    0.0000000000
H       -5.2362800000   -2.1226110000    0.0000000000
H       -0.6928700000   -4.0838600000    0.0000000000
H        0.6408270000   -2.9885130000    0.0000000000
C        3.0263940000   -1.4464050000    0.0000000000
C        4.9449180000    0.0000290000    0.0000000000
C        4.1674910000    1.0873990000    0.0000000000
C        2.7399670000    0.8551050000    0.0000000000
N        4.3985350000   -1.2378500000    0.0000000000
N        2.2307000000   -0.3568440000    0.0000000000
N        1.9099420000    1.8850830000    0.0000000000
O        2.6172300000   -2.5848080000    0.0000000000
H        4.9632880000   -2.0564360000    0.0000000000
H        6.0175890000    0.0492700000    0.0000000000
H        4.5763200000    2.0777300000    0.0000000000
H        2.2565290000    2.8138220000    0.0000000000
H        0.9141020000    1.7329110000    0.0000000000
58   
Iteration 1 Energy -1875.20036554
C       -1.4888972220   -2.9392767804    3.2519447673
C       -3.9425982780   -2.8927516942    3.2522412195
C       -3.9284723379   -1.5390672434    3.2574829077
C       -2.6358033761   -0.8785440563    3.2546635713
N       -2.7548405919   -3.5614309655    3.2498728632
N       -1.4981734845   -1.5744952932    3.2580014941
N       -2.5691986530    0.4572486367    3.2297509926
O       -0.4732493037   -3.6370445444    3.2556917523
H       -2.7359981368   -4.5716439458    3.2359595131
H       -4.8500735187   -3.4898137955    3.2447370483
H       -4.8480207103   -0.9677981014    3.2482191216
H       -3.4087855201    1.0131237305    3.1789554245
H       -1.6581567374    0.9290693286    3.2052701541
C        0.9733097451    1.1080225976    3.2316700112
C        2.1851245835   -1.0694266567    3.2352955906
C        3.4048234244    0.8069232490    3.2504281044
C        2.3030312312    1.6656841060    3.2324695329
C        4.0381144361    2.9378615411    3.2276895506
N        1.0412881028   -0.3037019147    3.2345594258
N        3.4046269977   -0.5473057950    3.2489273899
N        2.7341107973    2.9889121133    3.2085900683
N        4.5077287610    1.6285103397    3.2621275747
N        2.0157061106   -2.4087233463    3.2141534572
O       -0.1136050335    1.6853848271    3.2316486526
H        0.1287036051   -0.7775429533    3.2258510733
H        4.7142600449    3.7853413620    3.2242686835
H        5.4685686216    1.3198820083    3.2813766396
H        2.8468578618   -2.9774180508    3.1893798636
H        1.0968148431   -2.8510489431    3.1856094586
C       -1.4419377742    0.3297038017    0.0181180942
C       -1.1345701872   -2.1431183143    0.0173086596
C       -3.2272085733   -1.3479429454   -0.0008935372
C       -2.8443016736   -0.0047081946    0.0165574558
C       -4.9955309757   -0.0003319512    0.0216933139
N       -0.6623470904   -0.8496396940    0.0170464088
N       -2.4274810672   -2.4407184368    0.0019951037
N       -3.9724971499    0.8098397502    0.0402752685
N       -4.6025139662   -1.3347601093   -0.0126884052
N       -0.2092530746   -3.1259976532    0.0407487961
O       -0.9083193793    1.4386304731    0.0171391713
H        0.3541602203   -0.6916885398    0.0271109389
H       -6.0413008108    0.2855119632    0.0258441413
H       -5.1966035216   -2.1504886112   -0.0317643124
H       -0.5470139035   -4.0748577477    0.0645877209
H        0.7937381987   -2.9430770236    0.0710839270
C        2.9308820397   -1.5019656410   -0.0023157825
C        4.8886413303   -0.0223420108   -0.0028760032
C        4.0819610947    1.0648782712   -0.0071729371
C        2.6479574244    0.8389512581   -0.0045830968
N        4.3210677640   -1.2615894161   -0.0008635355
N        2.1362105000   -0.3923848369   -0.0088624076
N        1.8072803636    1.8793541359    0.0173979679
O        2.5178512748   -2.6633284410   -0.0026810551
H        4.8996014868   -2.0900045901    0.0131362982
H        5.9738044300    0.0273904831    0.0040012968
H        4.4905903243    2.0674232911    0.0014630620
H        2.1534276758    2.8250253889    0.0672809370
H        0.7937137091    1.7206661615    0.0384905481
58   
Iteration 2 Energy -1875.20017280
C       -1.5804048465   -2.9944045131    3.2521946926
C       -3.9710712542   -2.8878279862    3.2503279366
C       -3.9701300418   -1.5284572808    3.2545401629
C       -2.6689452054   -0.8986774694    3.2455794436
N       -2.8333949155   -3.6407718940    3.2520362278
N       -1.5437246523   -1.6292114691    3.2574039963
N       -2.5689456772    0.4354248487    3.2111633257
O       -0.5766764966   -3.7214346990    3.2444124758
H       -2.8328901786   -4.6563283214    3.2241993367
H       -4.8934368177   -3.4634492563    3.2387596580
H       -4.8856168555   -0.9456059109    3.2362129900
H       -3.4077112016    0.9914490506    3.0906048016
H       -1.6414353181    0.9010519296    3.1760559071
C        1.0555742484    1.1489582053    3.2118489803
C        2.2335554224   -1.0330400805    3.2282827676
C        3.4566481446    0.8256389717    3.2490892713
C        2.3738017087    1.7199306911    3.2121954327
C        4.1095428296    2.9563477381    3.2088516524
N        1.0857260412   -0.2667529912    3.2348275953
N        3.4671664008   -0.5260887637    3.2429064358
N        2.7994404880    3.0432012668    3.1679232624
N        4.5701297896    1.6399427788    3.2696883312
N        2.0617062118   -2.3712949037    3.2023782423
O       -0.0247652360    1.7545738629    3.2085070878
H        0.1576007063   -0.7387199789    3.2426582795
H        4.7986146159    3.7953132683    3.2091497319
H        5.5302192537    1.3157856948    3.3069008963
H        2.8979180883   -2.9374384440    3.1370430107
H        1.1339216749   -2.8188564794    3.1711027653
C       -1.5299876289    0.3078094386    0.0396875828
C       -1.2042882085   -2.1522533334    0.0264829184
C       -3.2841172358   -1.3638271377    0.0028577176
C       -2.9325828067   -0.0039397801    0.0375014035
C       -5.0632556048   -0.0219240558    0.0402620840
N       -0.7257586898   -0.8577850804    0.0152017756
N       -2.5006464731   -2.4650017293    0.0131757319
N       -4.0536306964    0.8176024430    0.0809715801
N       -4.6635357604   -1.3581365924   -0.0185452341
N       -0.2797741566   -3.1343611139    0.0549957399
O       -1.0108238442    1.4323475959    0.0464830142
H        0.3031274900   -0.6964395678    0.0056468369
H       -6.1136888508    0.2523328777    0.0393496591
H       -5.2503803065   -2.1842053176   -0.0557210711
H       -0.6224693701   -4.0839930866    0.1229387517
H        0.7338167890   -2.9508737699    0.0819890304
C        3.0433365362   -1.4843204973   -0.0000707454
C        4.9115724546    0.0087914036   -0.0013374077
C        4.1084517131    1.1056506073   -0.0038808738
C        2.6856113310    0.8501785377    0.0033993950
N        4.4366937507   -1.2698921812   -0.0034595155
N        2.2082842054   -0.4033883519   -0.0086868261
N        1.8171927990    1.8687057022    0.0317195029
O        2.6609983019   -2.6634624637    0.0122325102
H        5.0341336664   -2.0912470684    0.0241109944
H        5.9960211556    0.0867519261    0.0085538516
H        4.5055934285    2.1156349285    0.0129442683
H        2.1689434338    2.8115741365    0.1518290515
H        0.7926358520    1.7014882443    0.0593918526
58   
Iteration 3 Energy -1875.20515439
C       -1.5562313123   -2.9693219815    3.2466314480
C       -4.0014011939   -2.8840932425    3.2454357752
C       -3.9563966315   -1.5305859313    3.2412090641
C       -2.6570125809   -0.9013628470    3.2323574894
N       -2.8270727674   -3.5713885332    3.2530015019
N       -1.5223553480   -1.6114001540    3.2498652551
N       -2.5603349461    0.4283063825    3.2086916981
O       -0.5632064780   -3.7052022373    3.2294077037
H       -2.8163304399   -4.5823484820    3.2283955630
H       -4.9181106474   -3.4646354750    3.2395539430
H       -4.8619701854   -0.9386714422    3.2215401314
H       -3.3926064965    0.9794913608    3.0595437366
H       -1.6373803737    0.8975377504    3.1782818552
C        1.0602740207    1.1392439879    3.2026348656
C        2.2361958911   -1.0403571546    3.2277334285
C        3.4581882611    0.8095847316    3.2503899697
C        2.3783172397    1.6981454328    3.2071456205
C        4.1119126989    2.9343224559    3.2014843435
N        1.0987116925   -0.2690847803    3.2320607028
N        3.4680919773   -0.5386613015    3.2442602288
N        2.8060833064    3.0172239141    3.1631164522
N        4.5676690967    1.6222990487    3.2635681148
N        2.0561019391   -2.3725875553    3.2071702289
O       -0.0211867545    1.7366784916    3.1865763029
H        0.1770977239   -0.7462522460    3.2405673718
H        4.7969978712    3.7717618472    3.2003365543
H        5.5239061809    1.2998093063    3.2979718385
H        2.8862869756   -2.9378238972    3.1251997469
H        1.1297369329   -2.8149012448    3.1761365159
C       -1.5289556774    0.2955762658    0.0475057080
C       -1.2013435961   -2.1583967027    0.0260860653
C       -3.2767380097   -1.3789923075   -0.0000307563
C       -2.9242222801   -0.0256589520    0.0411056626
C       -5.0532366136   -0.0424584948    0.0486124909
N       -0.7323474686   -0.8665540891    0.0172523316
N       -2.4929865651   -2.4757995043    0.0098403702
N       -4.0445096516    0.7911737688    0.0850134272
N       -4.6520675682   -1.3722847678   -0.0121222451
N       -0.2734209139   -3.1306349855    0.0521075478
O       -1.0056020238    1.4147043595    0.0680589460
H        0.2939829306   -0.7120280104    0.0102721748
H       -6.0995029375    0.2331405324    0.0503369567
H       -5.2367550459   -2.1947887081   -0.0463538363
H       -0.6125906878   -4.0756609903    0.1364472570
H        0.7358658959   -2.9440395957    0.0807887246
C        3.0040853762   -1.4765895498    0.0047099228
C        4.9316534948    0.0311274408    0.0034759915
C        4.1004442203    1.1002514118    0.0068236111
C        2.6798993424    0.8435099279    0.0138700480
N        4.3858681350   -1.2152195278   -0.0031018523
N        2.1787609787   -0.3975449858   -0.0036454638
N        1.8187395039    1.8616288411    0.0345477548
O        2.6331005255   -2.6556538165    0.0241996658
H        4.9716799735   -2.0392462874    0.0231626792
H        6.0145737885    0.0994082614    0.0087963738
H        4.4853053750    2.1113950810    0.0245180218
H        2.1667660539    2.7971641866    0.1837944596
H        0.7961835681    1.6989157529    0.0613991156
58   
Iteration 4 Energy -1875.20558725
C       -1.5167508783   -2.9281374961    3.2425121631
C       -3.9332019865   -2.8450572686    3.2411000466
C       -3.9225104828   -1.4933291474    3.2300746058
C       -2.6242994923   -0.8637604823    3.2233854375
N       -2.7745293643   -3.5551172876    3.2566826090
N       -1.4903723276   -1.5727795388    3.2460153913
N       -2.5257293183    0.4644516278    3.2016605219
O       -0.5114751439   -3.6421396105    3.2265524675
H       -2.7651780518   -4.5634170716    3.2338133902
H       -4.8476849076   -3.4255695213    3.2386686897
H       -4.8346586203   -0.9146138263    3.2076626368
H       -3.3389297587    1.0317931803    3.0286828764
H       -1.6016317721    0.9206278861    3.1612322758
C        1.0225471868    1.1115289384    3.1995763885
C        2.1952903567   -1.0720759304    3.2310545490
C        3.4364517977    0.7766151595    3.2556918925
C        2.3501246233    1.6496490964    3.2060426296
C        4.0939899330    2.8951392047    3.1908827731
N        1.0687923624   -0.2918394553    3.2282049535
N        3.4263010046   -0.5713140539    3.2546179164
N        2.7897849241    2.9635133377    3.1556092292
N        4.5456290594    1.5875046103    3.2611317941
N        2.0071114484   -2.4016540049    3.2094439938
O       -0.0604868426    1.7005532987    3.1706619190
H        0.1527896405   -0.7686480832    3.2238886721
H        4.7739584200    3.7345524476    3.1825057591
H        5.4998650046    1.2683620468    3.2943598492
H        2.8282177338   -2.9732625595    3.1166907712
H        1.0827574664   -2.8360678474    3.1621580570
C       -1.4842304184    0.2994676396    0.0503834584
C       -1.1448736299   -2.1557940828    0.0227496484
C       -3.2378989199   -1.3930082564   -0.0051615358
C       -2.8737560114   -0.0478740053    0.0421827434
C       -5.0164919733   -0.0666851556    0.0596665484
N       -0.6938742190   -0.8613058176    0.0210067187
N       -2.4348531615   -2.4756764533   -0.0005603179
N       -4.0019295851    0.7558119608    0.0923780932
N       -4.6120115446   -1.3898827918   -0.0088569594
N       -0.2104450011   -3.1201139865    0.0498771346
O       -0.9588660270    1.4146230089    0.0804999816
H        0.3268189762   -0.7042897215    0.0279378516
H       -6.0601492186    0.2121351594    0.0683699103
H       -5.1957534574   -2.2094328124   -0.0422662908
H       -0.5381938541   -4.0651809070    0.1444962022
H        0.7922611160   -2.9274947581    0.0947046291
C        2.9431873644   -1.4635116521    0.0070359583
C        4.8521986890    0.0201844053    0.0081956781
C        4.0497663193    1.1080752029    0.0166724432
C        2.6291225938    0.8569582825    0.0220606087
N        4.3302855214   -1.2346150272   -0.0060276380
N        2.1260259506   -0.3818668430   -0.0008145269
N        1.7702399835    1.8750479334    0.0421762650
O        2.5455106739   -2.6305607359    0.0251811459
H        4.9140211300   -2.0567765261    0.0203619651
H        5.9333960844    0.0866554263    0.0110418936
H        4.4489759722    2.1119152579    0.0362784192
H        2.0914685948    2.8129935443    0.2157146018
H        0.7552797510    1.6989566344    0.0816376438
58   
Iteration 5 Energy -1875.20774604
C       -1.5377248124   -2.9423992119    3.2413872319
C       -3.9594696865   -2.8463488458    3.2389248870
C       -3.9252756816   -1.4929480225    3.2247919107
C       -2.6294641360   -0.8587111923    3.2192409238
N       -2.8015570249   -3.5587528710    3.2586191861
N       -1.5027982715   -1.5852459882    3.2451350180
N       -2.5276286883    0.4707176157    3.1948831065
O       -0.5396779557   -3.6713740147    3.2241525012
H       -2.7956045342   -4.5688015139    3.2328994421
H       -4.8798972940   -3.4198001316    3.2361144903
H       -4.8330927155   -0.9058791134    3.1984893187
H       -3.3450324599    1.0269457918    2.9938066849
H       -1.6024033136    0.9299717387    3.1426319908
C        1.0600915146    1.1228224743    3.1961050955
C        2.2101483114   -1.0664787171    3.2340931968
C        3.4595974201    0.7770190854    3.2546328141
C        2.3843112548    1.6681053334    3.2011522822
C        4.1318376653    2.8931687819    3.1836818887
N        1.0821231362   -0.2836000857    3.2308866446
N        3.4461860839   -0.5712948610    3.2556607016
N        2.8268003314    2.9811956554    3.1415327543
N        4.5761103436    1.5807186116    3.2629088818
N        2.0213805898   -2.3972604386    3.2164944274
O       -0.0164081234    1.7276487049    3.1643593611
H        0.1584863486   -0.7523037189    3.2271761706
H        4.8204540866    3.7271745464    3.1748434916
H        5.5292105081    1.2527360437    3.3014979781
H        2.8420538946   -2.9710751014    3.1111872276
H        1.0938556082   -2.8313845218    3.1637409740
C       -1.5189665438    0.2854697697    0.0546674507
C       -1.1625593075   -2.1625581079    0.0203000444
C       -3.2569816112   -1.4054544005   -0.0022480380
C       -2.9107662794   -0.0524409758    0.0483945186
C       -5.0442330053   -0.0879762794    0.0674217946
N       -0.7105031387   -0.8656279691    0.0172571112
N       -2.4535675055   -2.4881750782    0.0008273929
N       -4.0399148745    0.7501825945    0.1076165863
N       -4.6327285445   -1.4112749902   -0.0094537089
N       -0.2282120219   -3.1284531529    0.0421259652
O       -1.0052414906    1.4082742703    0.0863323700
H        0.3118488395   -0.6993555090    0.0211503064
H       -6.0915017776    0.1821773365    0.0756941619
H       -5.2110975046   -2.2367664865   -0.0488003738
H       -0.5539908680   -4.0749044519    0.1508968819
H        0.7771269944   -2.9338280332    0.0885803907
C        2.9707514577   -1.4609628596    0.0085482541
C        4.8732309893    0.0392711072    0.0109562259
C        4.0497289200    1.1139196211    0.0224669603
C        2.6285026102    0.8659237208    0.0265854257
N        4.3558936684   -1.2179138452   -0.0073237581
N        2.1441500468   -0.3838138566    0.0005311897
N        1.7641352019    1.8816350212    0.0471664762
O        2.5908031187   -2.6369158977    0.0281756829
H        4.9445511416   -2.0386589402    0.0221487427
H        5.9549789738    0.1161058526    0.0139022188
H        4.4395000610    2.1223973641    0.0451647964
H        2.0986329232    2.8115257246    0.2504397446
H        0.7461095603    1.7088871779    0.0970788195
58   
Iteration 6 Energy -1875.20821004
C       -1.5457075920   -2.9377751474    3.2391063446
C       -3.9726742311   -2.8149395722    3.2346688962
C       -3.9396559648   -1.4607721532    3.2114776988
C       -2.6317879195   -0.8531621600    3.2089679414
N       -2.8186222928   -3.5344479572    3.2634151810
N       -1.5048819775   -1.5814155767    3.2404283124
N       -2.5149233760    0.4750672676    3.1895924449
O       -0.5558096032   -3.6800494099    3.2091729153
H       -2.8215038350   -4.5452687602    3.2346271270
H       -4.8950228795   -3.3859392380    3.2327030051
H       -4.8423644075   -0.8648003175    3.1775550120
H       -3.3234135271    1.0277476654    2.9406798982
H       -1.5833359395    0.9242897915    3.1305643166
C        1.0877388169    1.1277405857    3.1842471411
C        2.2290408642   -1.0734421014    3.2412058169
C        3.4857161549    0.7581999892    3.2546422739
C        2.4172107999    1.6598655386    3.1925051056
C        4.1744192244    2.8710436864    3.1707396084
N        1.1082702483   -0.2785584223    3.2350510264
N        3.4702966865   -0.5891984464    3.2591151843
N        2.8690318949    2.9698259531    3.1213483243
N        4.6079050241    1.5554019285    3.2634674147
N        2.0291123158   -2.4027034778    3.2353373450
O        0.0166103559    1.7445691250    3.1402656690
H        0.1803606153   -0.7433216042    3.2356800179
H        4.8696592807    3.7002501883    3.1586831920
H        5.5591308454    1.2199858812    3.3073804352
H        2.8474169411   -2.9766391767    3.1055688173
H        1.0976618128   -2.8312834372    3.1726805328
C       -1.5449124858    0.2702519543    0.0623992235
C       -1.1731711102   -2.1794251985    0.0110605481
C       -3.2673817994   -1.4379151483   -0.0037559048
C       -2.9333552596   -0.0804344849    0.0552661655
C       -5.0666831411   -0.1328474826    0.0817954234
N       -0.7321933930   -0.8777816820    0.0098823414
N       -2.4617932508   -2.5179544183   -0.0046784295
N       -4.0681892483    0.7141486221    0.1272028722
N       -4.6438975671   -1.4522084708   -0.0097241377
N       -0.2304962091   -3.1372638056    0.0226334606
O       -1.0440199986    1.4001606076    0.1048389000
H        0.2913052440   -0.7052891859    0.0101250937
H       -6.1165239440    0.1293940110    0.0950109506
H       -5.2161347842   -2.2827412322   -0.0544283232
H       -0.5552228789   -4.0817968586    0.1569788870
H        0.7749717884   -2.9359632096    0.0781669356
C        2.9708599167   -1.4501910095    0.0112806976
C        4.8645354054    0.0755452651    0.0167344616
C        4.0434106853    1.1527947851    0.0366563076
C        2.6283504903    0.8751126464    0.0376638756
N        4.3514809295   -1.1839616495   -0.0099545900
N        2.1424445187   -0.3752256793    0.0052926822
N        1.7535129776    1.8818597517    0.0546802169
O        2.6046447000   -2.6320256078    0.0403786694
H        4.9471774064   -2.0004523434    0.0233985479
H        5.9465283024    0.1535743934    0.0187511488
H        4.4242593322    2.1653824879    0.0660139468
H        2.0819583616    2.8035090730    0.3070741066
H        0.7362491684    1.6969010865    0.1122585369
58   
Iteration 7 Energy -1875.20923879
C       -1.5562296449   -2.9123996483    3.2351056305
C       -3.9799030569   -2.7812375845    3.2298832673
C       -3.9247991539   -1.4277154624    3.1969006485
C       -2.6167904584   -0.8205332034    3.1975576739
N       -2.8302005007   -3.5064161964    3.2690209883
N       -1.4961156117   -1.5576815200    3.2354483698
N       -2.4946939444    0.5082589198    3.1824916420
O       -0.5727910953   -3.6631967649    3.1989144737
H       -2.8375420899   -4.5172367715    3.2376303830
H       -4.9082907687   -3.3425184485    3.2290776006
H       -4.8222985952   -0.8248724437    3.1553999315
H       -3.2876081448    1.0623651120    2.8878760138
H       -1.5591260048    0.9473068264    3.1159413779
C        1.1149460893    1.1158031132    3.1757460568
C        2.2380267671   -1.0902111389    3.2540433049
C        3.5119728702    0.7279351053    3.2625788790
C        2.4496871153    1.6359272643    3.1880203590
C        4.2181338275    2.8332709135    3.1560121424
N        1.1216814314   -0.2894545703    3.2395895060
N        3.4843889058   -0.6184725786    3.2744542578
N        2.9133203854    2.9411278056    3.1017136916
N        4.6407504768    1.5162437067    3.2670478922
N        2.0279191487   -2.4176541588    3.2572381813
O        0.0500878074    1.7420936041    3.1136012566
H        0.1906616905   -0.7483282776    3.2340744283
H        4.9194626518    3.6571872791    3.1348350205
H        5.5893188428    1.1739663864    3.3148766136
H        2.8413534760   -2.9935486071    3.1059950356
H        1.0940350265   -2.8374008684    3.1715035213
C       -1.5609739679    0.2442984111    0.0681533682
C       -1.1713329702   -2.2000490741   -0.0027689164
C       -3.2717597107   -1.4792050006   -0.0109035264
C       -2.9462936856   -0.1202127798    0.0597523092
C       -5.0803982811   -0.1906799838    0.0980644236
N       -0.7390269548   -0.8956529964    0.0031162714
N       -2.4568294407   -2.5513255692   -0.0196884978
N       -4.0878234564    0.6635532873    0.1470447882
N       -4.6483351916   -1.5049611235   -0.0108976852
N       -0.2212272684   -3.1502269494   -0.0008491002
O       -1.0707633939    1.3783865563    0.1242976073
H        0.2834583422   -0.7156416813    0.0088313541
H       -6.1320076487    0.0637896923    0.1208329527
H       -5.2142802008   -2.3395701005   -0.0591139216
H       -0.5401404006   -4.0934548469    0.1557609209
H        0.7813385902   -2.9398301923    0.0748931741
C        2.9657324719   -1.4191112011    0.0140521615
C        4.8505956799    0.1093813166    0.0229679367
C        4.0115043160    1.1728739705    0.0518589872
C        2.5962696953    0.8965801654    0.0495426377
N        4.3461693637   -1.1528566791   -0.0143195098
N        2.1217310635   -0.3575366843    0.0095622892
N        1.7173652475    1.9012637693    0.0636185965
O        2.6091108652   -2.6038134932    0.0475078236
H        4.9451785181   -1.9668813607    0.0228149730
H        5.9316876625    0.1996161814    0.0244472527
H        4.3842244632    2.1879174992    0.0883240629
H        2.0322199206    2.8146980530    0.3621361374
H        0.7029915212    1.7052769812    0.1298558765
58   
Iteration 8 Energy -1875.21013451
C       -1.5577453564   -2.8752908465    3.2283534128
C       -3.9771710834   -2.7246485256    3.2238160558
C       -3.9117755638   -1.3728065127    3.1841035361
C       -2.6019690191   -0.7708862641    3.1868578020
N       -2.8351291422   -3.4609865047    3.2720813930
N       -1.4904049083   -1.5205155175    3.2301270132
N       -2.4737925363    0.5593926978    3.1696942331
O       -0.5769688453   -3.6285905893    3.1908560811
H       -2.8508274431   -4.4708025979    3.2364951938
H       -4.9103671520   -3.2770087048    3.2222126058
H       -4.8040759824   -0.7643745272    3.1349112015
H       -3.2460722417    1.1193120039    2.8338029819
H       -1.5339313990    0.9806314689    3.0871654298
C        1.1614163979    1.0956661018    3.1718669530
C        2.2418553069   -1.1234755694    3.2735119072
C        3.5460636296    0.6839410713    3.2758679402
C        2.4998941969    1.6057208003    3.1869759207
C        4.2839012279    2.7761157333    3.1447725053
N        1.1373005851   -0.3079662633    3.2465902133
N        3.4921970088   -0.6623624558    3.2984922305
N        2.9822533765    2.9027435400    3.0834396542
N        4.6858595917    1.4553421485    3.2755953807
N        2.0156016427   -2.4494072701    3.2909275558
O        0.1066056751    1.7333458625    3.0916106286
H        0.1999676419   -0.7498364241    3.2277112046
H        4.9970129645    3.5888405045    3.1133929270
H        5.6287182758    1.1006237484    3.3280785684
H        2.8115049590   -3.0454627501    3.1266567060
H        1.0764061302   -2.8454791823    3.1740615172
C       -1.5837535079    0.2006921078    0.0722091847
C       -1.1537669270   -2.2309912457   -0.0213633676
C       -3.2715171849   -1.5354356904   -0.0189648667
C       -2.9664861726   -0.1745996547    0.0646510594
C       -5.0974099094   -0.2760498919    0.1123907972
N       -0.7399306732   -0.9212963509   -0.0046344950
N       -2.4363214837   -2.5927500471   -0.0389766451
N       -4.1184338377    0.5916632481    0.1685924260
N       -4.6469944124   -1.5816731123   -0.0135413803
N       -0.1924108311   -3.1713389901   -0.0372429350
O       -1.1065272941    1.3377468699    0.1388746808
H        0.2774386740   -0.7230416009    0.0106140425
H       -6.1519931603   -0.0374494936    0.1441985105
H       -5.2010451339   -2.4230275054   -0.0660358855
H       -0.4839411220   -4.1207343467    0.1333672666
H        0.8014074424   -2.9385663076    0.0639797726
C        2.9438984360   -1.3860262513    0.0185667401
C        4.8138487975    0.1576340429    0.0309504301
C        3.9652860123    1.2121022697    0.0660996140
C        2.5516702852    0.9291649396    0.0599589094
N        4.3219310623   -1.1090647111   -0.0165354361
N        2.0928174254   -0.3297888453    0.0133841015
N        1.6662024891    1.9309150138    0.0736097662
O        2.5919295469   -2.5715009954    0.0531409424
H        4.9274867956   -1.9170210831    0.0249425643
H        5.8935492844    0.2589188215    0.0338554344
H        4.3288998363    2.2292182337    0.1103066929
H        1.9644422800    2.8357529872    0.4132095220
H        0.6584233648    1.7197180016    0.1536769579
58   
Iteration 9 Energy -1875.21087863
C       -1.5776790036   -2.8365919960    3.2190178443
C       -3.9924077218   -2.6415398782    3.2169385551
C       -3.9000253347   -1.2917905795    3.1740492292
C       -2.5809523391   -0.7108630816    3.1761494937
N       -2.8643838449   -3.3991249891    3.2725462534
N       -1.4856083038   -1.4822812992    3.2226804239
N       -2.4313376618    0.6197315561    3.1574550045
O       -0.6111998735   -3.6068786352    3.1684155773
H       -2.8979340467   -4.4078908791    3.2264414246
H       -4.9356685710   -3.1762050099    3.2115602122
H       -4.7800698678   -0.6672986155    3.1168118281
H       -3.1915689675    1.1568749667    2.7603604285
H       -1.4876702503    1.0215835251    3.0488746103
C        1.2173606216    1.0791678610    3.1610296598
C        2.2638460793   -1.1600516980    3.3011742085
C        3.6007396286    0.6222534949    3.2894759736
C        2.5682893684    1.5571157774    3.1816784555
C        4.3745399675    2.6956045519    3.1328949935
N        1.1761198689   -0.3225759290    3.2574980416
N        3.5215671111   -0.7221100858    3.3256196662
N        3.0758387324    2.8431183414    3.0605766799
N        4.7549814362    1.3717997437    3.2869683129
N        2.0129067961   -2.4820022719    3.3460564720
O        0.1756187261    1.7341657743    3.0598135150
H        0.2308330484   -0.7454970249    3.2300346778
H        5.1010867136    3.4957340215    3.0929307685