6    
Iteration 0 Energy -149.93317873
O        0.8559100000   -1.3823600000    0.3174600000
H        1.6752400000   -1.8477400000    0.4858000000
H        1.1176100000   -0.4684300000    0.2057500000
O       -1.0986300000   -0.8583700000    2.1731900000
H       -0.4031000000   -1.1460800000    1.5818400000
H       -1.0851100000    0.0968300000    2.1128200000
6    
Iteration 1 Energy -149.93923992
O        0.8151240910   -1.3397589108    0.3266451300
H        1.6435486609   -1.8464005683    0.5322028063
H        1.2103556455   -0.4465133269    0.1581136921
O       -1.1237255200   -0.8946770775    2.2036738584
H       -0.4231640569   -1.1700315232    1.5539698712
H       -1.0602188522    0.0912313749    2.1022546737
6    
Iteration 2 Energy -149.93966027
O        0.8338858413   -1.3141882045    0.3156815577
H        1.6238148480   -1.8617219390    0.5518824178
H        1.2496467044   -0.4367724755    0.1249397379
O       -1.1281328681   -0.8960864292    2.2156162010
H       -0.4483161347   -1.1857001344    1.5540378251
H       -1.0689783958    0.0883191493    2.1147023220
6    
Iteration 3 Energy -149.93989583
O        0.8352673084   -1.2946131557    0.3161911469
H        1.5990507775   -1.8621388961    0.5719986457
H        1.2906369473   -0.4458554663    0.1052034546
O       -1.1215283066   -0.9083390651    2.2179175237
H       -0.4581395828   -1.1701575949    1.5342007280
H       -1.0833671689    0.0749541758    2.1313485754
6    
Iteration 4 Energy -149.94005182
O        0.8369690546   -1.2734316972    0.3142824564
H        1.5686541302   -1.8702417071    0.5960571370
H        1.3386014200   -0.4567732871    0.0823450733
O       -1.1094809548   -0.9254065990    2.2183205418
H       -0.4589989402   -1.1405773725    1.5066850488
H       -1.1138247380    0.0602806292    2.1591697850
6    
Iteration 5 Energy -149.94014471
O        0.8427384774   -1.2578375413    0.3018371474
H        1.5406288180   -1.8825464885    0.6108454625
H        1.3880066923   -0.4711870724    0.0613752057
O       -1.0985502940   -0.9403068283    2.2217882748
H       -0.4528738465   -1.0998963673    1.4898374915
H       -1.1580299395    0.0456242665    2.1911765114
6    
Iteration 6 Energy -149.94017393
O        0.8443016674   -1.2535056604    0.2935659184
H        1.5280897174   -1.8914381661    0.6091094693
H        1.4074706745   -0.4770373822    0.0592396402
O       -1.0917153998   -0.9438436431    2.2235132488
H       -0.4419064009   -1.0806006517    1.4897071919
H       -1.1843204111    0.0402754736    2.2017246314
6    
Iteration 7 Energy -149.94019815
O        0.8459028754   -1.2508023664    0.2857342819
H        1.5166279427   -1.9043828771    0.5987960691
H        1.4222692460   -0.4791201326    0.0663647315
O       -1.0848399413   -0.9450119760    2.2278210249
H       -0.4288591997   -1.0623992005    1.4958513052
H       -1.2091811159    0.0355665701    2.2022926895
6    
Iteration 8 Energy -149.94024102
O        0.8460175795   -1.2434469599    0.2772631805
H        1.4964074548   -1.9247319660    0.5744581705
H        1.4447930646   -0.4803389889    0.0895919815
O       -1.0720848291   -0.9424795388    2.2360907576
H       -0.4090828940   -1.0455194907    1.5078187794
H       -1.2441306316    0.0303670184    2.1916372373
6    
Iteration 9 Energy -149.94041411
O        0.8516859341   -1.2018137858    0.2543413104
H        1.4023007724   -1.9956732288    0.4620618504
H        1.5445393639   -0.4991132083    0.1999375493
O       -1.0166219537   -0.9230400774    2.2749166835
H       -0.3461565631   -0.9756000841    1.5473332758
H       -1.3738282788   -0.0109092136    2.1382694596
6    
Iteration 10 Energy -149.94042536
O        0.9229458933   -1.0515499410    0.2508024218
H        1.0853843105   -2.0136416677    0.0863966654
H        1.8248885705   -0.7484518492    0.5196616953
O       -0.8626199964   -0.7789763348    2.3765344362
H       -0.2466213805   -0.7110938505    1.6021478538
H       -1.6620594121   -0.3024350403    2.0413170629
6    
Iteration 11 Energy -149.94085008
O        0.8761888681   -1.1019227149    0.2469269525
H        1.2071337298   -2.0333695372    0.2366849740
H        1.7146791648   -0.6054964335    0.4107862890
O       -0.9241867740   -0.8515826795    2.3447154269
H       -0.2668962700   -0.8667308523    1.6036895642
H       -1.5450001628   -0.1470468462    2.0340569265
6    
Iteration 12 Energy -149.94108230
O        0.8760168182   -1.0745833839    0.2592182318
H        1.1669447619   -2.0177459756    0.2170548097
H        1.7342513770   -0.6204605064    0.4398284969
O       -0.9122433771   -0.8437425606    2.3500242230
H       -0.2619974849   -0.8868073706    1.6047919378
H       -1.5410535390   -0.1628092168    2.0059424373
6    
Iteration 13 Energy -149.94122972
O        0.8891576238   -1.0101609755    0.2938535973
H        1.0485405264   -1.9615004969    0.0844974810
H        1.7935664290   -0.7263777530    0.5695776831
O       -0.8629104791   -0.7825086366    2.3720307495
H       -0.2220680126   -0.8576102407    1.6220689086
H       -1.5843677534   -0.2679906108    1.9348318323
6    
Iteration 14 Energy -149.94124005
O        0.8930981950   -1.0163109556    0.2857627877
H        1.0626453939   -1.9709287409    0.1009801356
H        1.7950799229   -0.7140023856    0.5488039556
O       -0.8703453042   -0.7904407587    2.3719965010
H       -0.2332943954   -0.8607189183    1.6180208732
H       -1.5852654217   -0.2537470160    1.9512960185
6    
Iteration 15 Energy -149.94124197
O        0.8907794351   -1.0195251273    0.2868095510
H        1.0684713212   -1.9723990262    0.1003276655
H        1.7901943955   -0.7097901404    0.5503370858
O       -0.8719087440   -0.7904557050    2.3712447257
H       -0.2331111291   -0.8648382343    1.6191435173
H       -1.5825069037   -0.2491405489    1.9489976973
6    
Iteration 16 Energy -149.94124349
O        0.8904852853   -1.0212252545    0.2886876851
H        1.0720088352   -1.9722586567    0.0964490029
H        1.7886523095   -0.7091349979    0.5537764774
O       -0.8723792593   -0.7888570241    2.3712859932
H       -0.2347870482   -0.8675932334    1.6186422297
H       -1.5820617523   -0.2470796204    1.9480188422
6    
Iteration 17 Energy -149.94124430
O        0.8904918162   -1.0241148175    0.2896346450
H        1.0785047738   -1.9734286258    0.0952755014
H        1.7867770384   -0.7061586967    0.5540319996
O       -0.8742666421   -0.7885839006    2.3712752177
H       -0.2385534973   -0.8717117242    1.6174950112
H       -1.5810351234   -0.2421510345    1.9491478338
6    
Iteration 18 Energy -149.94124434
O        0.8907364554   -1.0244316684    0.2896254586
H        1.0793573503   -1.9736564956    0.0954811623
H        1.7869157036   -0.7057844372    0.5534839897
O       -0.8746524925   -0.7887012421    2.3713440495
H       -0.2393888570   -0.8721331792    1.6172360613
H       -1.5810497962   -0.2414417792    1.9496894824
