6    
Climbing Image - Chain 41 Image 8 Energy  -170.1514721900 (+26.156 kcal/mol) RMSGrad 0.026 eV/Ang
C       -0.2696255077   -1.1447682977   -1.0564262167
C       -0.6689599572   -0.0940043219   -0.5047317160
H       -1.4595168674    0.6222830941   -0.4298897183
H        0.6161687529   -1.7568445665   -0.9923676737
C        0.5065340199    1.0379596231    1.0712860958
N        1.2753995601    1.3353744697    1.9121292291
