106  
Iteration 0 Energy -3423.94764555
O        0.9142630000    4.6686520000   11.3523840000
N        2.4649570000    4.0041100000    4.4642540000
H        2.6614790000    4.7938190000    4.7006570000
N        0.8714850000    4.7435890000    2.1271730000
H        0.6236950000    3.9352890000    1.8478290000
C        2.9907120000    3.8242130000    3.0778110000
H        2.7906030000    2.9065300000    2.7660330000
H        3.9737460000    3.9394860000    3.0812370000
C        2.3689200000    4.8251090000    2.1312840000
H        2.6444390000    5.7384130000    2.3960100000
H        2.7070230000    4.6606310000    1.2151360000
C        0.3413190000    4.8601280000    3.5154430000
H       -0.6385590000    4.7238360000    3.5037940000
H        0.5198610000    5.7717130000    3.8578280000
C        0.9748980000    3.8491630000    4.4343320000
H        0.6145570000    3.9632940000    5.3493390000
H        0.7452470000    2.9361140000    4.1273510000
C        0.2858850000    5.7919540000    1.2441440000
H       -0.6914290000    5.7374930000    1.2745220000
H        0.5918650000    5.6521490000    0.3243410000
H        0.5742690000    6.6763310000    1.5531810000
C        3.1046340000    3.0307250000    5.4176330000
H        2.9287470000    2.1079010000    5.1049410000
H        4.0848430000    3.1712070000    5.4132930000
C        2.5925220000    3.1787220000    6.8228050000
C        2.9275390000    4.2770450000    7.6286320000
H        3.5122580000    4.9478260000    7.2931000000
C        2.4128500000    4.3911200000    8.9068090000
H        2.6317980000    5.1503350000    9.4332920000
C        1.5779610000    3.4072900000    9.4323780000
C        1.2495930000    2.3142560000    8.6263230000
H        0.6814070000    1.6350970000    8.9696220000
C        1.7347990000    2.2040530000    7.3426640000
H        1.4850710000    1.4608180000    6.8065880000
C        1.0258140000    3.5675060000   10.8245310000
N        0.6605760000    2.4045180000   11.4170240000
H        0.9788130000    1.6871530000   11.0938250000
C       -0.0477270000    2.2051160000   12.6305610000
C       -0.8907100000    3.1589350000   13.1974720000
H       -0.9569210000    4.0350090000   12.8365860000
C       -1.6307640000    2.7811850000   14.3105090000
H       -2.2064410000    3.4250780000   14.7049720000
C       -1.5760450000    1.5153430000   14.8769640000
C       -2.5240790000    1.1460690000   15.9895440000
H       -2.0127130000    0.8323350000   16.7652210000
H       -3.1239190000    0.4326020000   15.6848460000
H       -3.0529310000    1.9315570000   16.2421640000
C       -0.6798530000    0.5973390000   14.3258130000
C        0.0708120000    0.9508250000   13.2052380000
H        0.6749190000    0.3202380000   12.8297340000
N       -0.6372560000   -0.7136450000   14.8673710000
H       -1.3854110000   -0.9596640000   15.2531530000
C        0.2893990000   -1.7009760000   14.6620310000
N       -0.1112120000   -2.9451180000   15.0057860000
C        0.7909280000   -3.8987160000   14.8079840000
H        0.5578080000   -4.7876640000   15.0498690000
C        2.0463490000   -3.6861000000   14.2751060000
H        2.6603950000   -4.3970130000   14.1362330000
C        2.3596660000   -2.3703060000   13.9546480000
N        1.4887620000   -1.3733500000   14.1668400000
C        3.6544790000   -1.9827790000   13.3470800000
C        4.5203560000   -2.9409930000   12.8299620000
H        4.2534980000   -3.8521010000   12.8708480000
N        5.7050240000   -2.6554490000   12.2783550000
C        6.0427150000   -1.3624270000   12.1888180000
H        6.8837810000   -1.1410510000   11.8064620000
C        5.2314480000   -0.3357420000   12.6246230000
H        5.4960110000    0.5696700000   12.5145290000
C        4.0290990000   -0.6443480000   13.2239680000
H        3.4629340000    0.0453970000   13.5492220000
O        0.7458750000    2.0963510000    1.7409330000
O        2.5912290000    0.4332860000    2.9126720000
O        2.8046070000   -1.1391910000    1.4419460000
O       -1.3444650000   -3.7058500000    1.0235010000
O       -3.2120270000   -2.6431130000    0.8501380000
O       -3.3916690000    2.0388320000    1.7084990000
O       -1.6482220000    3.2486990000    1.4387480000
N        2.1331310000   -0.3133950000    2.0547670000
N       -2.0087540000   -2.6714100000    1.0589040000
N       -2.1845560000    2.1556350000    1.5712260000
C        0.0709670000    1.0514500000    1.7050730000
C        0.6988020000   -0.2544890000    1.7726820000
C        0.0541070000   -1.4394040000    1.5497550000
H        0.5350950000   -2.2586230000    1.5394770000
C       -1.3220950000   -1.4221130000    1.3366500000
C       -2.0466150000   -0.2452390000    1.3793620000
H       -2.9918280000   -0.2558930000    1.2836590000
C       -1.3690260000    0.9479590000    1.5630030000
O        2.3894170000    6.6064970000    4.9966750000
O        0.2824090000    8.3309670000    4.4176590000
O        0.5041220000    9.7086030000    6.0722530000
O        4.5621070000   12.4483780000    4.9304370000
O        6.4223950000   11.3387910000    4.7397150000
O        6.2967780000    6.6928260000    3.8128320000
O        4.8881590000    5.5077290000    4.9286100000
N        0.9688620000    8.9974780000    5.1853410000
N        5.1961560000   11.3924790000    4.8418140000
N        5.2623420000    6.5807570000    4.4619700000
C        3.0501150000    7.6673050000    4.9146770000
C        2.4221370000    8.9618730000    5.0309370000
C        3.0829890000   10.1570640000    5.0300230000
H        2.6154020000   10.9755610000    5.1506230000
C        4.4646420000   10.1388310000    4.8472960000
C        5.1648120000    8.9713670000    4.6679950000
H        6.1045260000    8.9855510000    4.5270670000
C        4.4724660000    7.7735900000    4.6967740000
106  
Iteration 1 Energy -3424.36616075
O        0.9042328994    4.6197670648   11.2729507261
N        2.4711506481    4.0428228330    4.4468694247
H        2.6521002525    4.9307953028    4.7356836415
N        0.8146020405    4.7748422751    2.1445721732
H        0.5848635752    3.8926470569    1.8170775781
C        2.9909145456    3.9242665755    3.0496937434
H        2.8217416451    2.9603205386    2.7031415538
H        4.0146057948    4.0952221888    3.0509220989
C        2.3079440970    4.9269385020    2.1358949816
H        2.5471352818    5.8915751011    2.4368632988
H        2.6556468455    4.7968616818    1.1664719233
C        0.2945599718    4.8312246389    3.5445467599
H       -0.7248534863    4.6387073654    3.5348689915
H        0.4417481412    5.7874621520    3.9229263853
C        0.9899149282    3.8203672783    4.4300145463
H        0.6219619432    3.8983176837    5.3967733645
H        0.7982009335    2.8599379260    4.0859350973
C        0.1657758120    5.8173060619    1.2967016580
H       -0.8592457989    5.7010623523    1.3429726932
H        0.4859724604    5.7073017830    0.3207572196
H        0.4304133504    6.7518757236    1.6501092124
C        3.1627866636    3.0755270920    5.3694590602
H        3.0170294522    2.1114712877    5.0134937333
H        4.1818234635    3.2725720095    5.3576579074
C        2.6359430983    3.1838207687    6.7748122727
C        2.9364246586    4.2957858708    7.5766140849
H        3.5378844004    5.0358142227    7.2182498299
C        2.4134398494    4.3916313435    8.8589023414
H        2.6103663776    5.2067846119    9.4357945847
C        1.6084437949    3.3710564039    9.3702704586
C        1.3124333482    2.2613460329    8.5701984457
H        0.7259668869    1.5104731904    8.9283975490
C        1.8113286056    2.1719949660    7.2815132649
H        1.5755867656    1.3697696060    6.7003019550
C        1.0456311235    3.5165425049   10.7575337404
N        0.7026560015    2.3395339271   11.3531959306
H        1.0677204480    1.5434070565   11.0046743401
C       -0.0084974043    2.1522542978   12.5649723720
C       -0.8549411881    3.1305268362   13.0900392957
H       -0.9131350477    4.0544792440   12.6699078052
C       -1.6138121218    2.7969675273   14.2082489851
H       -2.2339430020    3.5003694644   14.6046499695
C       -1.5676894963    1.5433419273   14.8143169464
C       -2.5212623156    1.1922228036   15.9353815691
H       -1.9888470307    0.8807862081   16.7664538613
H       -3.1527389217    0.4300023149   15.6324101825
H       -3.0848386183    2.0221649199   16.1823575353
C       -0.6657794381    0.6047198184   14.2944170245
C        0.1078215073    0.9060230192   13.1709884212
H        0.7543001504    0.2147469597   12.7992903519
N       -0.6441827243   -0.6835407538   14.8828706500
H       -1.4524018283   -0.9521844310   15.3098130256
C        0.2801649714   -1.6803943668   14.7150784956
N       -0.1414192038   -2.9033382585   15.1053903672
C        0.7501236137   -3.8780964940   14.9499216611
H        0.4725311890   -4.8122525931   15.2489104426
C        2.0176381801   -3.6961200958   14.4123006668
H        2.6626657200   -4.4736175833   14.2995300602
C        2.3494991962   -2.3916875364   14.0412698241
N        1.4841769182   -1.3805859429   14.2129948783
C        3.6492507766   -2.0340753146   13.4271380503
C        4.5224619950   -3.0158517959   12.9444146656
H        4.2574310641   -3.9972443333   13.0080120595
N        5.7097978484   -2.7461266300   12.3899137195
C        6.0471549079   -1.4562173227   12.2612374849
H        6.9559823164   -1.2564666709   11.8458739864
C        5.2321149325   -0.4051538341   12.6608469284
H        5.5193452303    0.5602074883   12.5131108272
C        4.0195890546   -0.6944690378   13.2657017573
H        3.4072165223    0.0516540430   13.5888726867
O        0.7582682774    2.1219192982    1.7567412846
O        2.5923865118    0.4473466376    2.9276948306
O        2.8059489200   -1.1361292252    1.4457249887
O       -1.3245095096   -3.6850481893    1.0342344443
O       -3.2171032060   -2.6004176764    0.8569108997
O       -3.3911681737    2.0238417216    1.7112359828
O       -1.6320176689    3.2699006877    1.4499011435
N        2.1418555997   -0.3058464733    2.0633768452
N       -2.0079406655   -2.6592314391    1.0610200229
N       -2.1802362254    2.1704796092    1.5769231936
C        0.0848711349    1.0677272388    1.7140565768
C        0.7097296743   -0.2440331449    1.7789747644
C        0.0638578094   -1.4336286648    1.5522500577
H        0.5741697418   -2.3140478681    1.5404513580
C       -1.3153458087   -1.4120086394    1.3377102307
C       -2.0361067927   -0.2285761451    1.3800372949
H       -3.0481452710   -0.2399383624    1.2753530491
C       -1.3575212820    0.9683672685    1.5675953196
O        2.3954570281    6.5795078009    4.9781175076
O        0.2903528068    8.3170407706    4.3975691741
O        0.5146654844    9.7070332473    6.0683807466
O        4.5284889412   12.4357410893    4.9337041327
O        6.4163205400   11.3441077275    4.7398664492
O        6.2882995473    6.6688045322    3.8070913529
O        4.8496929071    5.4863192883    4.9231475502
N        0.9644333336    8.9892762193    5.1774197013
N        5.1888839774   11.3968968615    4.8426079305
N        5.2492016136    6.5605645088    4.4561855253
C        3.0460872050    7.6517427373    4.9047715780
C        2.4176494448    8.9513504617    5.0249010678
C        3.0804990909   10.1518692879    5.0285720240
H        2.5808440717   11.0288982833    5.1591902643
C        4.4663803525   10.1369168241    4.8459075831
C        5.1685062347    8.9625039285    4.6648235158
H        6.1745740163    8.9767174611    4.5147958993
C        4.4719792485    7.7614520340    4.6907177565
106  
Iteration 2 Energy -3424.42460131
O        0.9794334883    4.6666002953   11.3279824285
N        2.4932751263    3.9022146577    4.5008487088
H        2.7314671420    4.8074761536    4.7846805887
N        0.8365235731    4.7024059467    2.2196453790
H        0.5478046983    3.8101670945    1.8969515420
C        2.9817297868    3.7422192481    3.0960095251
H        2.7527332577    2.7701005623    2.7604426274
H        4.0277494334    3.8620555645    3.0791605397
C        2.3352246358    4.7737563966    2.1836969824
H        2.6317383408    5.7420745950    2.4750454306
H        2.6612807583    4.6143716001    1.1948797830
C        0.3455197395    4.7997393201    3.6286374737
H       -0.6977626794    4.6596481117    3.6362568231
H        0.5539533948    5.7651939719    3.9981138157
C        1.0027012381    3.7590837025    4.5126527289
H        0.6528316502    3.8691479373    5.4989615033
H        0.7541526271    2.7915879338    4.1787118674
C        0.2280734416    5.7711450570    1.3733242468
H       -0.8166657889    5.7064701162    1.4414712899
H        0.5294805791    5.6324906336    0.3775865438
H        0.5544613912    6.7072355697    1.7206329710
C        3.1498783286    2.9128748940    5.4250512571
H        2.9475172046    1.9384594685    5.0798693372
H        4.1914580480    3.0627623754    5.3913286760
C        2.6416280877    3.0785063218    6.8325516664
C        2.9987112001    4.1896187010    7.6129977895
H        3.6451756673    4.9048247938    7.2283417896
C        2.4855228759    4.3366076740    8.8972790084
H        2.7261554836    5.1667471614    9.4705371791
C        1.6336317107    3.3646242092    9.4302565813
C        1.2827306634    2.2554979100    8.6514277845
H        0.6497986049    1.5276294549    9.0323845165
C        1.7725334926    2.1184806483    7.3613288704
H        1.4908161329    1.3028367298    6.7848024573
C        1.0791264087    3.5579417478   10.8149021931
N        0.6896999719    2.3939972609   11.4138652241
H        1.0443889524    1.5782403384   11.0430736291
C       -0.0291636706    2.2105366144   12.6211130022
C       -0.8616907390    3.1775332389   13.1908007869
H       -0.9128315199    4.1335105551   12.7969852589
C       -1.6174859763    2.8121310914   14.3035134266
H       -2.2378699199    3.5227540928   14.7359721879
C       -1.5827194288    1.5353531064   14.8664942941
C       -2.5298793112    1.1514985114   15.9835089241
H       -1.9877149540    0.7979359935   16.8130467570
H       -3.1843370748    0.3948489519   15.6560162143
H       -3.0931454236    1.9891707391   16.2720355283
C       -0.6945752443    0.6037713624   14.3063342595
C        0.0698537939    0.9446719785   13.1890910875
H        0.7170313766    0.2467605419   12.7816203371
N       -0.6732889083   -0.7064326931   14.8404025715
H       -1.4869041785   -1.0096792663   15.2753951861
C        0.2530926450   -1.6908718068   14.6139943601
N       -0.1372625751   -2.9417027822   14.9466658851
C        0.7703545535   -3.8906427264   14.7270463278
H        0.5054987702   -4.8609317725   14.9879109886
C        2.0276563145   -3.6551626078   14.1792583672
H        2.6969475193   -4.4278335216   14.0145118127
C        2.3281614491   -2.3255170128   13.8713793239
N        1.4435352546   -1.3453781538   14.1096919784
C        3.6084526424   -1.9004916899   13.2585486032
C        4.5116841123   -2.8180130582   12.7042783266
H        4.2837264968   -3.8305962399   12.7094597800
N        5.6795996422   -2.4722641894   12.1506370236
C        5.9707267822   -1.1659675758   12.0948539833
H        6.8833897014   -0.9079801369   11.6712103433
C        5.1241517302   -0.1691608000   12.5694216510
H        5.3797387698    0.8318823212   12.4752946881
C        3.9309037889   -0.5405385845   13.1721733625
H        3.2844664085    0.1738432726   13.5560020543
O        0.7672533865    2.1297276632    1.7630374648
O        2.6026894901    0.4517932862    2.9329661182
O        2.8167015728   -1.1298200328    1.4533516671
O       -1.3382069479   -3.6902251868    1.0331630257
O       -3.2184462000   -2.6079068492    0.8567359549
O       -3.3924795205    2.0430878920    1.7115890035
O       -1.6418346747    3.2876428039    1.4560023267
N        2.1476916312   -0.3005537191    2.0673540992
N       -2.0072434888   -2.6547716780    1.0620538833
N       -2.1782658257    2.1782538989    1.5793613071
C        0.0897531308    1.0748727348    1.7172360238
C        0.7161891978   -0.2367505533    1.7818168349
C        0.0695476401   -1.4274824059    1.5536630511
H        0.5899749676   -2.3238308043    1.5419289561
C       -1.3109025133   -1.4072876723    1.3383560021
C       -2.0299712132   -0.2216454997    1.3804647070
H       -3.0604107458   -0.2345719589    1.2728983198
C       -1.3531556778    0.9777038811    1.5692402272
O        2.3698470546    6.5967892255    4.9798154078
O        0.2817661719    8.3141899078    4.3970708733
O        0.4964282757    9.7022273324    6.0628284176
O        4.5411418835   12.4383735153    4.9320245559
O        6.4206833152   11.3455056964    4.7379539325
O        6.2998163893    6.6756318223    3.8076066401
O        4.8739528615    5.4785600503    4.9163004694
N        0.9582814815    8.9879513491    5.1757648581
N        5.1933068258   11.3953452357    4.8410571694
N        5.2590361424    6.5633072650    4.4545587752
C        3.0408519244    7.6568518664    4.9042975944
C        2.4123321369    8.9546560981    5.0245262834
C        3.0780170691   10.1542856345    5.0285749259
H        2.5711716735   11.0485521145    5.1616174069
C        4.4653661201   10.1374444982    4.8454652358
C        5.1643482811    8.9583618858    4.6643925640
H        6.1889185289    8.9736454604    4.5116717968
C        4.4692849532    7.7556456444    4.6900116873
106  
Iteration 3 Energy -3424.45064902
O        0.9040260631    4.5988796162   11.2096364487
N        2.4671723211    4.0517797918    4.4153234027
H        2.6476669495    4.9781195948    4.7334588061
N        0.7772803113    4.8126544572    2.1434497434
H        0.5463616394    3.9000008083    1.7864386062
C        2.9746383922    3.9652068259    3.0102770742
H        2.8092674707    2.9820126201    2.6426638223
H        4.0196705567    4.1542948009    3.0074207945
C        2.2685215359    4.9810003101    2.1228487908
H        2.4999488745    5.9661756991    2.4474632956
H        2.6128642356    4.8709993535    1.1239205504
C        0.2709634720    4.8369040761    3.5511767307
H       -0.7698632254    4.6274114234    3.5441186463
H        0.4152569255    5.8111845209    3.9526158857
C        0.9887437730    3.8137011824    4.4102486321
H        0.6236576741    3.8724397340    5.4047334298
H        0.8061107164    2.8337222218    4.0431041185
C        0.1058405805    5.8638242563    1.3233062213
H       -0.9421708802    5.7261756898    1.3818122264
H        0.4259468669    5.7723342369    0.3175446667
H        0.3706553039    6.8169415471    1.7047968435
C        3.1799394593    3.0776855322    5.3162350558
H        3.0398631295    2.0960812424    4.9344333832
H        4.2186955342    3.2972499115    5.2938057963
C        2.6516258786    3.1699029454    6.7238241161
C        2.9413834636    4.2830887900    7.5262982741
H        3.5532059338    5.0509087779    7.1547111354
C        2.4154679038    4.3729251049    8.8106543521
H        2.6073431849    5.2132633986    9.4080644349
C        1.6180604316    3.3433280173    9.3212659534
C        1.3339844564    2.2301408744    8.5191943568
H        0.7352402146    1.4503864178    8.8843737384
C        1.8380751774    2.1485687466    7.2269715494
H        1.6043876125    1.3211639350    6.6247014122
C        1.0520360925    3.4909860109   10.7078202560
N        0.7119623351    2.3137762333   11.3169351862
H        1.0964940062    1.4889111512   10.9608527157
C       -0.0010993258    2.1379806734   12.5282162309
C       -0.8521290646    3.1203776832   13.0399805941
H       -0.9119171771    4.0656621117   12.5946600632
C       -1.6143962328    2.7993260695   14.1603008389
H       -2.2571075832    3.5276776897   14.5579866277
C       -1.5652240817    1.5507706767   14.7821623129
C       -2.5187595685    1.2097558867   15.9079810009
H       -1.9774526610    0.9011724845   16.7685681735
H       -3.1679484740    0.4220262383   15.6110996757
H       -3.1015923731    2.0604430515   16.1527025367
C       -0.6585899656    0.6022205962   14.2773688114
C        0.1160901439    0.8965980770   13.1508622896
H        0.7841511566    0.1827045575   12.7779292527
N       -0.6386177854   -0.6751662128   14.8863787721
H       -1.4733807116   -0.9465873833   15.3281486709
C        0.2821294629   -1.6823729361   14.7476278406
N       -0.1526216121   -2.8925348412   15.1637165519
C        0.7322423234   -3.8794039771   15.0405591215
H        0.4284723836   -4.8297243524   15.3711954779
C        2.0091851096   -3.7173857851   14.5090939379
H        2.6664513746   -4.5274540908   14.4206600237
C        2.3547719093   -2.4223978111   14.1092631345
N        1.4923170096   -1.4034332334   14.2496196399
C        3.6613581675   -2.0806769012   13.5005894207
C        4.5488368033   -3.0654665210   13.0428471358
H        4.2886637006   -4.0797099671   13.1194150286
N        5.7397986346   -2.7990073157   12.4956975620
C        6.0737136061   -1.5103936525   12.3475942379
H        7.0154776451   -1.3147409791   11.9248043525
C        5.2474943742   -0.4532409940   12.7218782306
H        5.5415788785    0.5401371664   12.5560458550
C        4.0274958543   -0.7407496966   13.3194673326
H        3.3865990051    0.0274038809   13.6340266585
O        0.7708059584    2.1277296005    1.7666261002
O        2.6009684070    0.4554744742    2.9362406536
O        2.8186216190   -1.1270050858    1.4559308175
O       -1.3335505385   -3.6869944951    1.0354454056
O       -3.2190891424   -2.6035379867    0.8580423402
O       -3.3901608438    2.0460257525    1.7131824856
O       -1.6317207582    3.2904674931    1.4606617665
N        2.1478685375   -0.2988701179    2.0691079430
N       -2.0067680439   -2.6539660139    1.0625022956
N       -2.1749071675    2.1816574331    1.5816785120
C        0.0898641897    1.0739930871    1.7188626089
C        0.7169698744   -0.2365470736    1.7828795120
C        0.0699963507   -1.4274627827    1.5537294001
H        0.5953485634   -2.3341490336    1.5415368144
C       -1.3109363447   -1.4060829736    1.3383407775
C       -2.0295967664   -0.2194574514    1.3804223034
H       -3.0712985689   -0.2313913944    1.2712700012
C       -1.3525439302    0.9799603509    1.5701864292
O        2.3864499080    6.5759244269    4.9726826673
O        0.2802212422    8.3127955438    4.3928972886
O        0.4995873920    9.7017334300    6.0596859882
O        4.5348575996   12.4372311293    4.9332969900
O        6.4185645760   11.3510220788    4.7384915265
O        6.2942902363    6.6622551161    3.8063372052
O        4.8548585875    5.4735770743    4.9160273277
N        0.9582538340    8.9847189393    5.1730948582
N        5.1909136262   11.3969070141    4.8416430366
N        5.2523796430    6.5564348980    4.4532726812
C        3.0431126145    7.6470597129    4.9011576556
C        2.4122243651    8.9462045390    5.0225042852
C        3.0776266949   10.1476433420    5.0280105875
H        2.5627380216   11.0504136121    5.1631708887
C        4.4657364179   10.1366002833    4.8453136730
C        5.1659656378    8.9573889622    4.6636356261
H        6.2017530718    8.9739300274    4.5093976943
C        4.4712988838    7.7534589668    4.6883115403
106  
Iteration 4 Energy -3424.43457107
O        0.5957846784    4.4620678679   10.8868226942
N        2.5540611177    3.6580933093    4.4065780431
H        2.8209002099    4.6589244230    4.6821642197
N        0.6079785225    4.4893708332    2.4045730263
H        0.2658615845    3.5253795387    2.0944968143
C        2.8586862391    3.5163914914    2.9495236346
H        2.5844099608    2.4968883373    2.6405115991
H        3.9387961226    3.6794588500    2.8238468159
C        2.0873037828    4.5733678359    2.1633236511
H        2.3920935829    5.5911082325    2.4501028705
H        2.2611336281    4.4315515874    1.0865427251
C        0.3135314959    4.5814584840    3.8734270293
H       -0.7665147029    4.4147013505    3.9904119091
H        0.5789158559    5.5947452012    4.2145176002
C        1.0830697626    3.5150273216    4.6331711752
H        0.8929747513    3.6384143060    5.7065134440
H        0.8089480669    2.4995678207    4.3117227251
C       -0.1188930504    5.5641424476    1.6661433695
H       -1.1942251241    5.4347845080    1.8468181533
H        0.0981415212    5.4621635942    0.5925550400
H        0.2247463478    6.5388471551    2.0457988310
C        3.3515476578    2.7144940924    5.2751787980
H        3.2119058026    1.7063155697    4.8559244485
H        4.4021665365    3.0211672976    5.1735453531
C        2.8437364792    2.8175704112    6.6905077326
C        2.9696041029    4.0181124359    7.3993570304
H        3.5288055717    4.8519385647    6.9563437077
C        2.3460546145    4.1678803095    8.6328335307
H        2.4016496736    5.1099066246    9.1898391881
C        1.6083229151    3.1131022011    9.1866553890
C        1.4969221813    1.9031877828    8.4860688090
H        0.8960033403    1.0756278198    8.8809525218
C        2.1118749567    1.7601198203    7.2412295528
H        1.9887642130    0.8291364225    6.6717750181
C        0.9283142362    3.3470687309   10.5088972134
N        0.6793743451    2.1928087904   11.2172822226
H        1.1878139427    1.3475152090   10.9226099988
C       -0.0635751464    2.0568075345   12.4088936378
C       -0.9962472947    3.0117388493   12.8193706626
H       -1.0899111744    3.9562576331   12.2780419228
C       -1.7901849164    2.7278913103   13.9247219458
H       -2.5295516127    3.4722042918   14.2488615977
C       -1.6907754680    1.5371646465   14.6453589104
C       -2.6044893590    1.2361962784   15.8125740129
H       -2.0395940259    0.9931053067   16.7315602444
H       -3.2702052124    0.3779953976   15.5971411608
H       -3.2514640043    2.1003091857   16.0304355575
C       -0.7204727261    0.5970454390   14.2287130470
C        0.0915153199    0.8585888460   13.1169444542
H        0.8408680309    0.1256949236   12.8098090401
N       -0.6292558214   -0.6090070858   14.9495508447
H       -1.4360074052   -0.9246468595   15.4989801337
C        0.3298843163   -1.5887258718   14.8693580747
N       -0.0246992251   -2.7510114049   15.4574498780
C        0.8684156592   -3.7304598000   15.3509133121
H        0.5897101297   -4.6798008033   15.8313856851
C        2.0830329656   -3.5992340001   14.6753016027
H        2.7820834876   -4.4381696331   14.6199203805
C        2.3515012562   -2.3479461745   14.1042352957
N        1.4690306112   -1.3405326315   14.2168078191
C        3.5944886854   -2.0334204477   13.3644417021
C        4.4523653917   -3.0457192156   12.9077827309
H        4.2155769524   -4.1065304679   13.0696106552
N        5.5816834817   -2.8195553940   12.2344863678
C        5.9045954997   -1.5447986052   11.9854908884
H        6.8493200467   -1.3941100236   11.4435499533
C        5.1186936844   -0.4565279772   12.3788568342
H        5.4307765131    0.5671745044   12.1384433266
C        3.9418347416   -0.7047532645   13.0781299695
H        3.2907541193    0.1063871082   13.4222357362
O        0.7408955197    2.2961724645    1.8700794572
O        2.5906366451    0.6453174898    2.9507923078
O        2.8078601720   -1.0821316906    1.5882915641
O       -1.2109381319   -3.5253728813    1.1418398080
O       -3.1755527446   -2.4187652978    0.9598760087
O       -3.3453053145    2.0911941906    1.6217634810
O       -1.5032213536    3.3730794642    1.7034225693
N        2.1719987003   -0.1752407132    2.1191912564
N       -1.9555310437   -2.5418957494    1.1034306593
N       -2.1298814417    2.2959092730    1.6174404246
C        0.1161840466    1.2106920468    1.7361665396
C        0.7560225150   -0.0966376204    1.7893137979
C        0.1181958340   -1.2910864961    1.5393117898
H        0.6683797461   -2.2371292798    1.5327508382
C       -1.2636013697   -1.2851131723    1.3254121758
C       -1.9835950310   -0.1001085386    1.3451359353
H       -3.0693296398   -0.1112506067    1.2153105133
C       -1.3171754167    1.1023799227    1.5514747903
O        2.4380828595    6.5637818088    4.9299960817
O        0.3662397826    8.1876832865    4.3828695455
O        0.4974227122    9.8551769672    5.8524808775
O        4.4573598257   12.4472944907    4.9938097061
O        6.3936382733   11.3848278445    4.6865824686
O        6.2993402187    6.6966698563    3.8494004527
O        4.6910216342    5.5145664011    4.8130672706
N        0.9601191387    8.9958281634    5.1057541418
N        5.1715935520   11.4539672909    4.8386840413
N        5.2274727266    6.5843100758    4.4446079866
C        3.0593789418    7.6647118643    4.8916341774
C        2.4165166679    8.9632078212    5.0143502934
C        3.0801942532   10.1702108889    5.0454854900
H        2.5414874287   11.1111685086    5.1963941520
C        4.4676611233   10.1818283506    4.8499631937
C        5.1704210102    9.0050237673    4.6493920712
H        6.2485391867    9.0205720584    4.4698278955
C        4.4845864182    7.7946804846    4.6852229987
106  
Iteration 5 Energy -3424.46103758
O        0.5877503027    4.3399557813   10.7758458686
N        2.5305564781    3.7422397807    4.3382743580
H        2.7741111152    4.7319766670    4.6667731016
N        0.5781884887    4.6401406418    2.3699275969
H        0.2572240788    3.6878208331    2.0066193644
C        2.8454298331    3.6836731019    2.8774355073
H        2.5952709922    2.6767697990    2.5143225013
H        3.9219698197    3.8763383516    2.7666667654
C        2.0559625016    4.7650245865    2.1436585345
H        2.3386583210    5.7713538587    2.4861128945
H        2.2381377844    4.6839822671    1.0621606944
C        0.2742394373    4.6469036310    3.8391863523
H       -0.8027388295    4.4527594056    3.9396323008
H        0.5174418456    5.6449822444    4.2356123529
C        1.0608625063    3.5566887812    4.5474777282
H        0.8615808545    3.6198620975    5.6239120309
H        0.8100975287    2.5539671724    4.1719773674
C       -0.1652871277    5.7377564814    1.6841902442
H       -1.2384653801    5.5779931600    1.8498538191
H        0.0603567645    5.6961634915    0.6085518613
H        0.1561186871    6.6974329137    2.1164125598