124  
Iteration 0 Energy -2503.57658822
C      102.0140000000   14.9730000000   80.2930000000
C      102.1170000000   13.4520000000   79.9330000000
C      102.5640000000   12.7660000000   81.2010000000
C      104.1030000000   12.6320000000   81.0650000000
C      104.7330000000   11.9110000000   82.2700000000
C      105.5030000000   12.9200000000   83.0790000000
C      106.9010000000   13.1690000000   82.4680000000
C      107.6710000000   14.2160000000   83.3380000000
C      107.7520000000   15.5890000000   82.6130000000
N      106.4330000000   16.3900000000   82.8150000000
C      106.1080000000   17.2820000000   81.7160000000
C      104.5870000000   17.2780000000   81.4940000000
C      104.0960000000   17.8730000000   80.1710000000
C      102.6990000000   17.3270000000   79.8760000000
C      102.0630000000   18.1380000000   78.7640000000
C      100.5327328200   17.9744755900   78.8200546800
C      100.7425980300   12.9145988300   79.4927509600
C      104.4236978200   11.8382172300   79.7848977300
C      105.6310000000   12.4070000000   84.5190000000
C      109.0972434600   13.7003542900   83.6054679500
C      106.4610000000   17.0670000000   84.1200000000
C      106.5746065800   18.7095347000   82.0566214600
C      105.0190000000   17.5140000000   78.9960000000
O      101.3550000000   15.3270000000   81.2530000000
O      104.8120000000   14.1600000000   83.1090000000
O      103.9812152200   18.0113188700   82.5617866100
O      104.0240000000   19.3080000000   80.3000000000
O      102.7750000000   15.9580000000   79.4360000000
C      105.1700000000    9.5630000000   82.0590000000
C      106.0420000000    8.5490000000   81.3490000000
C      105.4360000000    7.1980000000   81.4790000000
C      105.2200000000    6.8580000000   82.8980000000
C      104.5460000000    7.9680000000   83.7140000000
C      104.6487271400    7.6134824800   85.2091135300
C      107.5830000000    6.0730000000   81.4850000000
C      105.6760000000    4.8730000000   80.7370000000
O      105.6110000000   10.8760000000   81.8340000000
O      106.1447214500    8.8943377400   79.9651321800
N      106.3200000000    6.1930000000   80.8060000000
O      105.1490000000    9.2910000000   83.5010000000
C      100.7610000000   11.6080000000   82.2990000000
C       99.7450000000   10.5630000000   81.9130000000
C      100.0850000000    9.2030000000   82.4070000000
C      100.3630000000    9.2280000000   83.8630000000
C      101.4650000000   10.2040000000   84.1710000000
C      101.7149812000   10.2040359700   85.6905754000
C       98.8730000000    8.2400000000   82.0950000000
C      101.1300000000    8.0730000000   80.5340000000
O      101.9050000000   11.4980000000   81.4630000000
O      101.2900000000    8.7370000000   81.7650000000
O      100.8680000000    7.9370000000   84.2710000000
O      101.1550000000   11.5810000000   83.7420000000
H      102.0950010700   17.3887765700   80.7570612600
H      105.9317298600   17.1016172000   79.3725164300
H      104.5347261300   16.7949559700   78.3688202000
H      105.2332280000   18.3954554800   78.4285120300
H      104.9119973200   19.6713099100   80.3326599100
H      102.3160730700   19.1704642000   78.8859495700
H      102.4243220100   17.7914981900   77.8183346800
H      100.2763877400   17.2789442600   79.5916914900
H      100.0802528400   18.9213854800   79.0286776200
H      100.1783202900   17.6094794200   77.8787420000
H      104.2464378700   16.2651280200   81.5488433400
H      104.6655253400   18.3924802500   83.1167962100
H      106.6000427200   16.9476485500   80.8266164600
H      107.5152573800   18.8997418900   81.5834435700
H      105.8500895800   19.4147029300   81.7063174900
H      106.6826734800   18.8060178000   83.1167688800
H      107.3412846400   17.6712919900   84.1894992500
H      105.5942987700   17.6866138100   84.2190339100
H      106.4677917100   16.3357354200   84.9010928100
H      108.5708494200   16.1508768600   83.0113466100
H      107.9102583900   15.4272792800   81.5671985400
H      107.1615712600   14.3405954900   84.2706619500
H      109.7571045800   14.5314230800   83.7426100600
H      109.0980232400   13.0949387100   84.4877215200
H      109.4275639100   13.1164277600   82.7719103900
H      107.4496028000   12.2505924500   82.4464932600
H      106.7931938400   13.5435083900   81.4714954600
H      106.5313655900   12.7873393300   84.9544122200
H      104.7901563900   12.7384107600   85.0917555700
H      105.6607609900   11.3374204900   84.5152657100
H      105.4469450600   14.8798204600   83.1264150100
H      103.9584643200   11.4877879400   82.8748851400
H      104.5303597800   13.6095636100   80.9835566900
H      105.3524699400   11.3215789000   79.9088621500
H      103.6434740300   11.1298217800   79.5996229800
H      104.4979719900   12.5117266200   78.9567863500
H      102.3585983900   13.4201958300   82.0224243700
H      102.8390757900   13.3033275200   79.1574981900
H      100.8183962300   11.8673335900   79.2868622800
H      100.0301720800   13.0736395800   80.2750906000
H      100.4242841600   13.4294341900   78.6104126900
H      100.3192830600   12.5640247100   82.1097834600
H       99.6733120700   10.5321787900   80.8458491700
H       98.7937147200   10.8453157500   82.3133175300
H       99.1592970400    7.2291373700   82.2977085300
H       98.0392122200    8.5049226000   82.7110470400
H       98.5992546300    8.3334232200   81.0648371100
H      101.9574539400    7.4136965400   80.3741909700
H      100.2214730400    7.5079738300   80.5489731200
H      101.0894634900    8.7926501000   79.7432026000
H      101.8278585400    7.9527136800   84.2660339400
H       99.4779927900    9.4752622700   84.4112003400
H      102.3571192700    9.8824281800   83.6754046300
H      102.6349416300   10.7084437800   85.9006839000
H      100.9108129400   10.7084505000   86.1843156100
H      101.7728772800    9.1952386300   86.0425355800
H      104.1722761500    9.4725674000   81.6831422300
H      107.0171567200    8.5464812100   81.7894123400
H      107.0704665700    8.9558744200   79.7185369600
H      103.5122186600    8.0143330500   83.4418798300
H      105.5442243600    8.0356155900   85.6150548600
H      103.8008134800    8.0087239000   85.7284656700
H      104.6725189200    6.5497873400   85.3226327000
H      104.6087088100    5.9812167000   82.9477405500
H      106.1681132300    6.6379236700   83.3424634000
H      104.4878485200    7.2020135100   80.9831243400
H      108.3146888800    6.6734138900   80.9859664000
H      107.4774154600    6.4065097800   82.4961988600
H      107.8960521700    5.0498453000   81.4777336100
H      106.3051752200    4.1443386800   81.2040023800
H      104.7343889100    4.9086036900   81.2439526000
H      105.5197820600    4.6054628800   79.7128321200
124  
Iteration 1 Energy -2503.64068285
C      101.9545177242   15.0207416267   80.3518776030
C      102.0550339282   13.5213701125   79.9525765717
C      102.5399828747   12.7959688934   81.2066140796
C      104.0740312857   12.6547788224   81.0614159616
C      104.6810886002   11.9122138214   82.2773099953
C      105.4433498845   12.9177245393   83.1186853864
C      106.8560220793   13.1673915902   82.5296142538
C      107.6487639781   14.2083702033   83.3879794687
C      107.7466793452   15.5750312006   82.6581968048
N      106.4544073073   16.3886745295   82.8598797102
C      106.1461264093   17.2756820799   81.7173919508
C      104.6089916289   17.2972503788   81.4899575318
C      104.1072471804   17.8522920881   80.1307011642
C      102.6832922305   17.3286790839   79.8737239723
C      102.0365468042   18.1081201804   78.7362189590
C      100.4961555213   17.9865405575   78.8130714896
C      100.6718825257   13.0081248779   79.5057903547
C      104.4032741684   11.8878740382   79.7572396392
C      105.5412926737   12.3916012181   84.5636025566
C      109.0712802921   13.6709387907   83.6545909143
C      106.5199763897   17.0303745543   84.1853401407
C      106.6512773405   18.7224043281   81.9710502529
C      105.0074123769   17.4316662145   78.9461496776
O      101.3335628884   15.4348409420   81.3027392375
O      104.7404867493   14.1566025900   83.1391616100
O      103.9993237306   18.0893202466   82.5149467659
O      104.0541409807   19.2895966487   80.2013615086
O      102.7116997194   15.9449595418   79.4794520609
C      105.1142696445    9.5656829583   82.0626389748
C      106.0161806069    8.5631759890   81.3688455385
C      105.4079001771    7.1978166668   81.4664263877
C      105.1387494196    6.8544858681   82.8979697555
C      104.4340448714    7.9664475391   83.6868762620
C      104.4808415370    7.6288444833   85.1882006931
C      107.5918184630    6.0775729296   81.4834755327
C      105.6561849308    4.8878409750   80.6888867620
O      105.5681667563   10.8729638667   81.8622426310
O      106.1602443062    8.9284281222   79.9944531938
N      106.3155843359    6.2061518149   80.7950060932
O      105.0412104932    9.2808475517   83.4922031763
C      100.7844445468   11.5937298566   82.3144883158
C       99.7836982178   10.5250099690   81.9355278700
C      100.1704236229    9.1552462907   82.4104046175
C      100.4810095356    9.1818719506   83.8727349952
C      101.5669555934   10.2004310669   84.1565407623
C      101.8587833045   10.2354809248   85.6665651014
C       98.9781444676    8.1697451331   82.1234082677
C      101.2809398512    8.0672421101   80.5001907839
O      101.9084920000   11.5196423674   81.4531663138
O      101.3818881819    8.7280927076   81.7447527503
O      101.0121415266    7.9007946257   84.2690737435
O      101.2073100672   11.5563565580   83.7319749780
H      102.0935551023   17.4401289767   80.7676648540
H      105.9290484026   17.0131276264   79.3055242695
H      104.5007143735   16.6950669492   78.3469348387
H      105.2249146786   18.2947536369   78.3394765132
H      104.9509413790   19.6369418171   80.2043234517
H      102.3187175982   19.1436651881   78.8126057470
H      102.3788484406   17.7110756741   77.7947939641
H      100.2215256300   17.3265931483   79.6188925698
H      100.0625925347   18.9572268750   78.9880433921
H      100.1131709757   17.5906102354   77.8868997932
H      104.2496969632   16.2861868552   81.5926054611
H      104.6779067495   18.4944406974   83.0578911313
H      106.6347506331   16.8882735664   80.8429563794
H      107.5997133708   18.8647175093   81.4794946361
H      105.9427648282   19.4306350907   81.5814534996
H      106.7751079989   18.9018449181   83.0195320322
H      107.4251764913   17.6091172080   84.2775842246
H      105.6710986815   17.6731797051   84.3244494430
H      106.5110206523   16.2680661000   84.9462582568
H      108.5821202568   16.1309827668   83.0548044621
H      107.8978921677   15.4114348927   81.6046157082
H      107.1434048565   14.3490268666   84.3270988235
H      109.7553080861   14.4933495161   83.7873706364
H      109.0686237430   13.0652337239   84.5459658220
H      109.3959646363   13.0720009426   82.8199293629
H      107.3974868004   12.2374608375   82.5124029007
H      106.7547894038   13.5452990167   81.5253016621
H      106.4337283826   12.7653647137   85.0358316079
H      104.6803696285   12.7218117332   85.1206155727
H      105.5714247305   11.3147959630   84.5564629994
H      105.3641141559   14.8962203414   83.1704849283
H      103.8864626905   11.4846107464   82.8649526981
H      104.5066245676   13.6379744429   81.0005230705
H      105.3326934772   11.3609791256   79.8669206759
H      103.6194297657   11.1794267314   79.5441566429
H      104.4865788590   12.5814439507   78.9369481805
H      102.3449296626   13.4346186680   82.0510757556
H      102.7668147639   13.3957156545   79.1581204465
H      100.7411833645   11.9619292049   79.2624942805
H       99.9589228803   13.1441575022   80.3003003325
H      100.3438968110   13.5562643027   78.6375954586
H      100.3188848074   12.5513763476   82.1577358302
H       99.6871994125   10.5094396566   80.8627682846
H       98.8280199629   10.7806197974   82.3642187621
H       99.2922139603    7.1578378472   82.3168227715
H       98.1492124760    8.4158584832   82.7661061414
H       98.6693822938    8.2587685517   81.0956526285
H      102.1547920807    7.4522483215   80.3619171445
H      100.4039870230    7.4457345582   80.4745026478
H      101.2263071074    8.7937819852   79.7037292479
H      101.9732476359    7.9380432091   84.2422675367
H       99.5954026877    9.4063438129   84.4440242661
H      102.4622304438    9.9009412996   83.6364287351
H      102.7726974761   10.7774434027   85.8460859491
H      101.0466607996   10.7253157411   86.1783565006
H      101.9603550242    9.2303251878   86.0379536593
H      104.1200965220    9.4779142177   81.6522296932
H      106.9831364594    8.5611749717   81.8458970853
H      107.0956087078    8.9976982641   79.7811556352
H      103.4030254127    8.0124829021   83.3727563991
H      105.3674108186    8.0583132975   85.6243598989
H      103.6113962125    8.0308149206   85.6815693861
H      104.5004103240    6.5594883111   85.3175863072
H      104.5218662771    5.9712882742   82.9324261831
H      106.0727094844    6.6365947676   83.3856461230
H      104.4689801969    7.1999671378   80.9360595132
H      108.3314054856    6.6916317937   80.9936322063
H      107.5057673621    6.3903119491   82.5100665910
H      107.9163777784    5.0517641217   81.4587409617
H      106.2676275492    4.1312833737   81.1508651993
H      104.6979598453    4.9136432309   81.1819175532
H      105.5108666313    4.6389774325   79.6497593575
124  
Iteration 2 Energy -2503.66387803
C      101.9424164579   15.0199214260   80.3511383147
C      102.0297451752   13.5286366174   79.9541440525
C      102.5103936492   12.7926720922   81.2164378292
C      104.0439463004   12.6348196640   81.0799659876
C      104.6443959390   11.8871883434   82.3035008805
C      105.4078839207   12.8902235226   83.1607514904
C      106.8250135072   13.1389738462   82.5788170563
C      107.6285847090   14.1756269512   83.4310465624
C      107.7313427099   15.5363822831   82.6962811153
N      106.4537248704   16.3549899743   82.8884314485
C      106.1617168064   17.2337629736   81.7267034171
C      104.6219247154   17.2677338717   81.4833426974
C      104.1316968250   17.8047484897   80.1016088153
C      102.6967225365   17.2960336387   79.8482043156
C      102.0556532658   18.0580660101   78.6905081852
C      100.5097893354   17.9589296310   78.7608027888
C      100.6412270979   13.0385434088   79.4967304275
C      104.3804272748   11.8676500085   79.7736646327
C      105.4977018886   12.3561016642   84.6066196205
C      109.0501703571   13.6309709342   83.6996558539
C      106.5186724710   17.0005657681   84.2116340607
C      106.6881010846   18.6820773723   81.9538147420
C      105.0354795286   17.3517483047   78.9256892486
O      101.3252419221   15.4470533872   81.2928552251
O      104.6991802044   14.1286568291   83.1808856280
O      104.0042475835   18.0830538151   82.4855464989
O      104.0876694253   19.2413332717   80.1407403999
O      102.7048111817   15.9050696746   79.4810578563
C      105.1361846198    9.5270093614   82.0593173914
C      106.0909941944    8.5905469956   81.3398146503
C      105.5522460375    7.1868234633   81.3979678942
C      105.2963787642    6.7979216338   82.8321891477
C      104.5357378064    7.8579839051   83.6405269225
C      104.5973210623    7.4995228647   85.1360459339
C      107.8021164720    6.1810329618   81.3719246744
C      105.9040627160    4.9176224514   80.5505717950
O      105.5409072911   10.8509493288   81.8890871596
O      106.2166775285    9.0037040225   79.9780553717
N      106.5065046755    6.2630298719   80.6961696799
O      105.0747908463    9.1989294676   83.4742185179
C      100.7336276473   11.6582528387   82.3101101781
C       99.7013974308   10.6097065585   81.9475232909
C      100.0353470879    9.2334919235   82.4675531969
C      100.3268738984    9.3013446930   83.9411288543
C      101.4440935421   10.3027310582   84.2032331835
C      101.7193279315   10.4036093817   85.7116302307
C       98.8179447674    8.2834967906   82.1963425753
C      101.1534877026    8.0508941971   80.6080240795
O      101.8608349997   11.5306117805   81.4589196912
O      101.2418543087    8.7459184252   81.8362679861
O      100.7965245410    8.0184382407   84.3941304686
O      101.1324653367   11.6431374532   83.7217089803
H      102.1053260481   17.4344674490   80.7419659521
H      105.9575457977   16.9282930775   79.2887872878
H      104.5251372233   16.6063735026   78.3334725602
H      105.2635409307   18.2051676240   78.3016371612
H      104.9894915547   19.5787814993   80.1390359376
H      102.3527107335   19.0946672976   78.7450457084
H      102.3980637727   17.6337712430   77.7557605983
H      100.2161111252   17.3188702377   79.5817704884
H      100.0836366888   18.9417649918   78.9123646131
H      100.1205976746   17.5465038018   77.8390474845
H      104.2506439223   16.2576904620   81.6027891968
H      104.6783331935   18.4961009831   83.0294125660
H      106.6545286017   16.8225452073   80.8620407438
H      107.6459553435   18.8025482277   81.4647291001
H      105.9937998477   19.3985182446   81.5451970573
H      106.8108943922   18.8890043570   83.0015934717
H      107.4320222253   17.5756991505   84.3149958452
H      105.6708438217   17.6522762733   84.3473992686
H      106.4974921071   16.2368566084   84.9766055634
H      108.5747845497   16.0928488429   83.0906920714
H      107.8804014314   15.3671379744   81.6389848282
H      107.1244468432   14.3238400790   84.3740322360
H      109.7455857174   14.4504466486   83.8304890877
H      109.0469462753   13.0254387895   84.5968058204
H      109.3753652696   13.0237048499   82.8653331396
H      107.3614742995   12.2017820214   82.5615266428
H      106.7261520704   13.5194427361   81.5700819849
H      106.3886277295   12.7258596046   85.0947351183
H      104.6287001572   12.6857526141   85.1599365501
H      105.5279024857   11.2749283506   84.5971668980
H      105.3194960523   14.8775495205   83.2171138647
H      103.8429575714   11.4578667380   82.8878799153
H      104.4803089197   13.6205477337   81.0244224145
H      105.3091064883   11.3335529059   79.8852618151
H      103.5936538724   11.1584086018   79.5499896708
H      104.4736045252   12.5628322036   78.9496950734
H      102.3182019472   13.4350233670   82.0643265227
H      102.7435309032   13.3960321813   79.1586837884
H      100.6969681226   11.9884772288   79.2487063162
H       99.9200078764   13.1816350613   80.2880360382
H      100.3236825299   13.5960469538   78.6247930334
H      100.3024416573   12.6322678693   82.1292538728
H       99.6156062214   10.5722075559   80.8698845495
H       98.7456762241   10.9082209759   82.3606319791
H       99.0942402666    7.2641027527   82.4283348911
H       97.9866085858    8.5800696747   82.8218411975
H       98.5212448301    8.3477805386   81.1585395758
H      102.0188944711    7.4082610166   80.5160541331
H      100.2599035471    7.4462449440   80.5700557193
H      101.1425180783    8.7553713101   79.7828747354
H      101.7592590503    8.0197344610   84.3814067083
H       99.4367753280    9.5768855828   84.4913962811
H      102.3395293176    9.9538809489   83.7063947160
H      102.6497208090   10.9301733119   85.8788287391
H      100.9123584846   10.9429662752   86.1905786943
H      101.7876252830    9.4129525339   86.1363506874
H      104.1424544637    9.4021908917   81.6421642323
H      107.0597854041    8.6254391654   81.8232853117
H      107.1489907270    9.1275632946   79.7712722311
H      103.5006112070    7.8594078592   83.3206452998
H      105.4650132423    7.9674015593   85.5814619706
H      103.7079398394    7.8496635138   85.6414772398
H      104.6703566207    6.4263007142   85.2508282759
H      104.7213179034    5.8808325896   82.8502290706
H      106.2416513130    6.6166242802   83.3228694337
H      104.6112980937    7.1538200366   80.8623101557
H      108.5084822808    6.8484810043   80.8913334213
H      107.7232399573    6.4584245556   82.4144597036
H      108.1830455225    5.1719217221   81.3132599657
H      106.5498437315    4.1673821271   80.9857836241
H      104.9431922948    4.8790588459   81.0480071960
H      105.7627532402    4.6932859938   79.5000897715
124  
Iteration 3 Energy -2503.69526355
C      101.8933292856   15.0891257792   80.3934619963
C      101.9629423954   13.6414527760   79.9478005793
C      102.5150941253   12.8503101364   81.1803932725
C      104.0337811103   12.6734653807   81.0188932955
C      104.5855536908   11.9107366223   82.2682600780
C      105.3481747516   12.9006037379   83.1780571548
C      106.7811653184   13.1320083526   82.6351397110
C      107.6036346189   14.1553661123   83.4771186523
C      107.7092057005   15.5023686950   82.7328155717
N      106.4623955289   16.3175293006   82.9120720381
C      106.1792574727   17.1925233411   81.7360282710
C      104.6325168025   17.2495857444   81.4866995496
C      104.1280302174   17.7757841938   80.0790401718
C      102.6586221001   17.3105213776   79.8724624239
C      101.9768821674   18.0517648827   78.7111889392
C      100.4237778350   17.9932592177   78.8233113534
C      100.5583438186   13.1900316421   79.4984682941
C      104.3742848257   11.9345977375   79.6897476432
C      105.3783290896   12.3511570254   84.6272670098
C      109.0192790493   13.5915235824   83.7623055934
C      106.5219380140   16.9802892894   84.2213617328
C      106.7527785754   18.6341168153   81.9337907931
C      105.0057407922   17.2794818810   78.8871927976
O      101.3037840295   15.4729739611   81.3613559055
O      104.6404731955   14.1459874459   83.1730932952
O      104.0176465586   18.0846729717   82.4734332136
O      104.0953072661   19.2058903434   80.0775654926
O      102.6132319461   15.9127715374   79.5416654405
C      105.0186612610    9.5508673907   82.0446749691
C      106.0097902151    8.5947931625   81.3903154102
C      105.4359939393    7.1824614009   81.4203797986
C      105.0599970736    6.8276572052   82.8695684509
C      104.2683403387    7.9278932577   83.5927486568
C      104.2058360428    7.6350365773   85.1001997426
C      107.6815129317    6.1352622129   81.5139289352
C      105.7556355122    4.9115522106   80.5902765416
O      105.4749780435   10.8482728706   81.9035500675
O      106.2331465347    9.0035233255   80.0424967351
N      106.4014590010    6.2381339665   80.7802256496
O      104.8487477060    9.2305574485   83.4329186510
C      100.8409543410   11.6286475486   82.3273251239
C       99.8400027943   10.5308259871   81.9908679533
C      100.2866744534    9.1367445862   82.4414488705
C      100.6808618536    9.1969201577   83.9153155627
C      101.7531144076   10.2843140936   84.1151655962
C      102.1329500507   10.4363388169   85.5895270191
C       99.1242675860    8.1352092371   82.2296326574
C      101.3681823415    8.0864073911   80.4816534291
O      101.9130089090   11.5768588532   81.4032460250
O      101.4749492541    8.7421010626   81.7303254213
O      101.2239950539    7.9382223551   84.3210659800
O      101.3234514308   11.5805117830   83.6697997334
H      102.0995270786   17.4908420125   80.7910217233
H      105.9443464286   16.8377229644   79.2167735633
H      104.4735361474   16.5248272282   78.3073299601
H      105.2347105652   18.1262957104   78.2350912412
H      105.0074301147   19.5226268098   80.0425040701
H      102.3054010477   19.0902657119   78.7229102607
H      102.2861315419   17.5856265860   77.7709271307
H      100.1196400625   17.3820147249   79.6773192036
H      100.0110953222   18.9971093412   78.9568592012
H       99.9829004660   17.5600279642   77.9204958545
H      104.2405744675   16.2366610207   81.6280425143
H      104.6958718899   18.5061254552   83.0126282754
H      106.6702050291   16.7510031765   80.8754046922
H      107.7247335819   18.7236693535   81.4402671019
H      106.0841933773   19.3819285532   81.5141932833
H      106.8914338167   18.8733917253   82.9884997415
H      107.4443270826   17.5681771890   84.3452329416
H      105.6607921153   17.6380672362   84.3473568125
H      106.4893695524   16.2191808424   85.0026208676
H      108.5688708226   16.0683747798   83.1208336808
H      107.8550590694   15.3222659923   81.6657529888
H      107.0974553321   14.3243717112   84.4277347689
H      109.7452879747   14.4004295465   83.8961186447
H      109.0085487351   12.9844905393   84.6729983620
H      109.3541719182   12.9631066218   82.9319821848
H      107.3018189165   12.1747446115   82.6213986230
H      106.6974685599   13.5156406161   81.6128209600
H      106.2561406491   12.7003504585   85.1773639929
H      104.4803104326   12.6923559206   85.1487671091
H      105.3958189615   11.2580113933   84.6167798983
H      105.2649824988   14.9072109752   83.2254481303
H      103.7458074547   11.4929928392   82.8259288718
H      104.4837779377   13.6643719069   80.9862784687
H      105.3025120793   11.3790801375   79.7821310065
H      103.5787922455   11.2276536526   79.4315941430
H      104.4832561738   12.6503782454   78.8692020481
H      102.3538039075   13.4701401642   82.0655269088
H      102.6529243304   13.5428489208   79.1161319989
H      100.5968414391   12.1424088383   79.1955732433
H       99.8386968722   13.3002933082   80.3106431093
H      100.2202479130   13.7952350333   78.6514259070
H      100.3573712374   12.6021008966   82.2340048307
H       99.6784356174   10.5324556898   80.9094929153
H       98.8898249064   10.7640283976   82.4845581340
H       99.4735219629    7.1176057015   82.4199851072
H       98.3138281128    8.3702514708   82.9246894252
H       98.7398403069    8.1995878803   81.2081437319
H      102.2848549166    7.5081797863   80.3392460159
H      100.5142628918    7.4052481365   80.4434384135
H      101.2768554456    8.8179004485   79.6661050723
H      102.1849377597    7.9925761635   84.2376517315
H       99.8048110258    9.4134013685   84.5337347731
H      102.6417560169    9.9909569597   83.5470272831
H      103.0406836746   11.0388327832   85.6828603077
H      101.3190785553   10.9316139211   86.1280416004
H      102.3075760681    9.4553581976   86.0333719721
H      104.0357319466    9.4476581897   81.5596359909
H      106.9508808890    8.6184672699   81.9521655657
H      107.1830039164    9.1113685828   79.9065706373
H      103.2477896433    7.9486225793   83.1873072249
H      105.0620450865    8.1027489234   85.5933893311
H      103.2891787683    8.0321593016   85.5424025287
H      104.2370607042    6.5561010241   85.2747099967
H      104.4532837938    5.9161727902   82.8762074708
H      105.9687919429    6.6346449707   83.4458841515
H      104.5258553646    7.1621329186   80.8105606353
H      108.4308369823    6.7931377934   81.0553487156
H      107.5979488659    6.4137929620   82.5711328497
H      108.0570184912    5.1118834527   81.4691690262
H      106.3443888368    4.1146369460   81.0528618885
H      104.7546433902    4.8882772035   81.0330091875
H      105.6596186858    4.6929813811   79.5200206988
124  
Iteration 4 Energy -2503.71154732
C      101.9034712531   15.0891326145   80.4334065186
C      101.9519623954   13.6404929011   80.0007519059
C      102.4901692368   12.8327445160   81.2377707704
C      104.0092144093   12.6344943429   81.0740384917
C      104.5874085689   11.8751450614   82.3164246157
C      105.3605535865   12.8658426335   83.2256419823
C      106.7811757759   13.1132959737   82.6603646472
C      107.6219218182   14.1377749234   83.4826422520
C      107.7087418229   15.4876186856   82.7439106746
N      106.4741722612   16.3013555418   82.9315098812
C      106.1966220520   17.1667098813   81.7397446603
C      104.6538328971   17.2311349656   81.4827276974
C      104.1697805723   17.7197965606   80.0518846908
C      102.6918868852   17.2791516726   79.8570995346
C      102.0128513299   17.9857496724   78.6717986695
C      100.4599651255   17.9479381790   78.7853715112
C      100.5413330040   13.2227901053   79.5411839323
C      104.3322978671   11.9047944305   79.7373831944
C      105.4209390238   12.3020687420   84.6669839620
C      109.0436977258   13.5788265165   83.7409699306
C      106.5360266027   16.9575210229   84.2426103848
C      106.7879519438   18.6086753690   81.8808061522
C      105.0441397708   17.1727432101   78.8796465378
O      101.3100115524   15.5028871360   81.3959113116
O      104.6297201590   14.0972741115   83.2375868275
O      104.0260836668   18.0947492514   82.4346639432
O      104.1495164095   19.1470938858   80.0011346977
O      102.6268124590   15.8692134786   79.5790380296
C      105.0961757462    9.5206760998   82.0754279598
C      106.1160387733    8.6318259058   81.3640805287
C      105.6358802675    7.1800316464   81.4021837680
C      105.3477085223    6.7948393658   82.8702772123
C      104.5240714386    7.8394986745   83.6372628961
C      104.5603537674    7.5393274755   85.1444984028
C      107.9443193366    6.2759597554   81.3558986131
C      106.0421731746    4.9483346508   80.5195877820
O      105.4913641359   10.8336423882   81.9344540589
O      106.2517098347    9.0685233298   80.0144224055
N      106.6180879359    6.3052880046   80.7041905472
O      105.0131984292    9.1716159864   83.4593487578
C      100.7321763200   11.6879494489   82.3331404926
C       99.6754569140   10.6536421987   81.9599818550
C      100.0040237572    9.2293676414   82.4257294641
C      100.3446886645    9.2761653304   83.9190375989
C      101.4795233281   10.2968955237   84.1586721853
C      101.8079548225   10.4605302802   85.6416252955
C       98.7872431317    8.3163385396   82.1777599982
C      101.1108552709    8.1079523685   80.5164661216
O      101.8287840251   11.5839036520   81.4352524921
O      101.1917108836    8.7525537621   81.7716245941
O      100.7577035215    7.9852562286   84.3568429183
O      101.1496368827   11.6064513415   83.6823000827
H      102.1367211046   17.4994242569   80.7708343481
H      105.9799619212   16.7255504270   79.2161217598
H      104.5050988446   16.4064731257   78.3186789691