72   
Iteration 5 Energy -1692.10986593
C       -0.5168280746   -0.3988815121    0.8723428384
H       -1.4631154655   -0.9300376752    0.8784462511
C       -0.5172979131    1.0286443584    0.8506614687
H       -1.4632628493    1.5598903349    0.8415613131
C        0.6542406075    1.7180632523    0.8469499634
H        0.6582503788    2.8034839040    0.8403606168
C        1.9105638590    1.0367581665    0.8613777327
C        1.9110409372   -0.4092342543    0.8709502296
C        0.6536647436   -1.0901329926    0.8796929493
H        0.6556260881   -2.1759817292    0.8932428849
C        3.1143583007    1.7155413790    0.8668346015
H        3.1137074220    2.8016606548    0.8704063909
C        4.3490921068    1.0372593478    0.8717893131
C        4.3493708037   -0.4102003911    0.8728791186
C        3.1142539671   -1.0882929100    0.8781531137
H        3.1134274315   -2.1749921694    0.8859255178
C        5.5685837528    1.7159408241    0.8745307107
H        5.5684451176    2.8018907666    0.8845830350
C        6.7885251478    1.0373055405    0.8703538317
C        6.7881995451   -0.4099786905    0.8664763537
C        5.5683484534   -1.0887371724    0.8728843808
H        5.5684378335   -2.1753628243    0.8738163107
C        8.0229382174    1.7155078947    0.8717270177
H        8.0232829480    2.8015097419    0.8869434414
C        9.2271517430    1.0370496996    0.8634548422
C        9.2262350455   -0.4085185801    0.8541058366
C        8.0224637186   -1.0877736322    0.8598568172
H        8.0234443343   -2.1745210574    0.8562903720
C       10.4837192306    1.7183597484    0.8697438371
H       10.4801585373    2.8034375848    0.8950989553
C       11.6547340724    1.0294065613    0.8625568735
H       12.6000517763    1.5595032794    0.8868699274
C       11.6530572305   -0.3973702418    0.8463839307
H       12.5996734130   -0.9271755975    0.8474942252
C       10.4834011530   -1.0892088694    0.8445374822
H       10.4815612555   -2.1751834961    0.8372859371
C        0.7427869022    0.4906668474    4.1379708244
H       -0.2025880069   -0.0393335325    4.1137708184
C        0.7445622771    1.9174434879    4.1541790178
H       -0.2020256666    2.4472999585    4.1532200121
C        1.9142599363    2.6092171270    4.1559104335
H        1.9161695258    3.6951907659    4.1632238052
C        3.1714011579    1.9284908089    4.1461553672
C        3.1703394133    0.4829239742    4.1367883185
C        1.9137556820   -0.1983666008    4.1306495026
H        1.9172409214   -1.2834449420    4.1052914895
C        4.3751728593    2.6077495150    4.1402485458
H        4.3742354786    3.6944984025    4.1438551762
C        5.6094046260    1.9298989935    4.1334447997
C        5.6090041890    0.4826117841    4.1295555154
C        4.3745512508   -0.1955307097    4.1283495859
H        4.3741529510   -1.2815306449    4.1131291513
C        6.8292447588    2.6086764427    4.1268945158
H        6.8291567497    3.6953028126    4.1259916749
C        8.0482145507    1.9301290784    4.1268053001
C        8.0484470963    0.4826692886    4.1278885622
C        6.8289502593   -0.1960163359    4.1252281295
H        6.8290777377   -1.2819665365    4.1151899545
C        9.2832934655    2.6082888929    4.1214968659
H        9.2840891920    3.6949898284    4.1137249828
C       10.4865002593    1.9292171182    4.1287467466
C       10.4870167519    0.4832220451    4.1383398122
C        9.2832138246   -0.1955514947    4.1328268379
H        9.2838906218   -1.2816699494    4.1292780537
C       11.7438528591    2.6101552695    4.1200526490
H       11.7418455232    3.6960031678    4.1064641982
C       12.9143598901    1.9189311390    4.1274847587
H       13.8606182291    2.4501383123    4.1213987635
C       12.9148711326    0.4914054653    4.1492052849
H       13.8608530476   -0.0398093238    4.1583495977
C       11.7433566243   -0.1980527272    4.1528576202
H       11.7393930490   -1.2834738096    4.1594618839
72   
Iteration 13 Energy -1692.10587865
C       -0.4922645925   -0.4584111506    0.8031368152
H       -1.4383284858   -0.9874432061    0.8557631796
C       -0.4924101402    0.9677901594    0.7365733872
H       -1.4377026267    1.5003036886    0.7427626940
C        0.6792297347    1.6551788107    0.6872160494
H        0.6845591722    2.7401697113    0.6590057990
C        1.9352609012    0.9733502828    0.6999407069
C        1.9352332182   -0.4720940726    0.7502946887
C        0.6775611748   -1.1509203968    0.8040138610
H        0.6790691197   -2.2354931930    0.8575360692
C        3.1390506301    1.6518745467    0.6914849485
H        3.1384958994    2.7378852168    0.6821079358
C        4.3739252193    0.9737727575    0.7174573989
C        4.3738468592   -0.4737449035    0.7394224740
C        3.1382540851   -1.1514489087    0.7625772673
H        3.1371764835   -2.2375717267    0.7981747124
C        5.5927225038    1.6525900966    0.7378076154
H        5.5917640175    2.7384433197    0.7475657029
C        6.8129455506    0.9738905716    0.7615278613
C        6.8130069113   -0.4734573173    0.7475418009
C        5.5926726511   -1.1524074600    0.7470843626
H        5.5925436449   -2.2390372962    0.7500092947
C        8.0461572644    1.6521705672    0.7982119846
H        8.0455803344    2.7377868943    0.8290139479
C        9.2510410069    0.9738635568    0.7952093264
C        9.2514325755   -0.4710153470    0.7483005044
C        8.0474220235   -1.1510359394    0.7348500223
H        8.0486617521   -2.2373683788    0.7037341852
C       10.5070812292    1.6560095354    0.8229536928
H       10.5027457582    2.7402845074    0.8738451190
C       11.6789558966    0.9684131964    0.7826955209
H       12.6245387036    1.4993053078    0.8017444124
C       11.6790785310   -0.4574112072    0.7158365339
H       12.6255750052   -0.9861203917    0.6732666799
C       10.5091573729   -1.1501036807    0.7037712914
H       10.5077250111   -2.2348024633    0.6501772520
C        0.7399983949    0.5520288867    3.9346724397
H       -0.2047362482    0.0208668074    3.9171753878
C        0.7414859484    1.9782545647    3.8876137516
H       -0.2051502429    2.5061777720    3.8442233518
C        1.9106107664    2.6705391214    3.8734544179
H        1.9124029227    3.7555244364    3.8267895313
C        3.1677386410    1.9908247983    3.9135230988
C        3.1669862787    0.5455313241    3.9518724693
C        1.9108705111   -0.1362728470    3.9569328162
H        1.9151812294   -1.2216385533    3.9630776966
C        4.3708966708    2.6707637946    3.9195371767
H        4.3698514506    3.7572604746    3.8949364324
C        5.6045024555    1.9940465628    3.9797062241
C        5.6043853904    0.5466091519    3.9933602336
C        4.3707254305   -0.1325735912    3.9725189506
H        4.3708494090   -1.2186436419    3.9789803112
C        6.8212782061    2.6740425938    4.0527421567
H        6.8195576997    3.7607197784    4.0595023201
C        8.0358698960    1.9963905030    4.1668733012
C        8.0379607548    0.5489049434    4.1463695362
C        6.8230044459   -0.1309226170    4.0475356474
H        6.8247450350   -1.2169018552    4.0410388183
C        9.2586799269    2.6735687401    4.3434396055
H        9.2566723317    3.7599813638    4.3722041903
C       10.4477098849    1.9923919497    4.5241193787
C       10.4514748059    0.5463067209    4.4893874814
C        9.2641238363   -0.1301519025    4.2827650642
H        9.2662124718   -1.2162038402    4.2606676929
C       11.6811936062    2.6702598490    4.7775332494
H       11.6755995173    3.7557187370    4.8119167627
C       12.8296838713    1.9762765576    4.9951163917
H       13.7535638368    2.5046684911    5.2068087847
C       12.8333500399    0.5484685031    4.9604606824
H       13.7601121058    0.0155781511    5.1456588688
C       11.6874375751   -0.1380762652    4.7087623236
H       11.6855805052   -1.2235124999    4.6861043185
72   
Iteration 15 Energy -1692.10023989
C       -0.4858234284   -0.5103595805    0.6469760777
H       -1.4324035416   -1.0371149285    0.7117466212
C       -0.4847347508    0.9142772624    0.5489820319
H       -1.4297072264    1.4473589105    0.5421491555
C        0.6873411229    1.5996505597    0.4858455834
H        0.6934190660    2.6837551037    0.4344946343
C        1.9428364852    0.9174411497    0.5177348153
C        1.9415587813   -0.5270904367    0.5942613720
C        0.6833166255   -1.2038652696    0.6612784501
H        0.6838599032   -2.2870983890    0.7374652620
C        3.1464419979    1.5955671531    0.5121876146
H        3.1459445096    2.6813091814    0.4890396770
C        4.3806373459    0.9174570023    0.5636021677
C        4.3799751268   -0.5299739309    0.5955585885
C        3.1438566952   -1.2069599799    0.6204485907
H        3.1419161679   -2.2925038920    0.6709423113
C        5.5981958584    1.5964970465    0.6036920554
H        5.5969649388    2.6823266776    0.6134369040
C        6.8180496841    0.9174435828    0.6410296767
C        6.8187257066   -0.5296690826    0.6158570217
C        5.5982893464   -1.2089959348    0.6104634264
H        5.5980728220   -2.2956267678    0.6122434223
C        8.0504647628    1.5958574758    0.6917985829
H        8.0495327584    2.6810724168    0.7357527665
C        9.2556521392    0.9182497782    0.6663952339
C        9.2568614219   -0.5257645509    0.5915037459
C        8.0531059373   -1.2067433722    0.5849401713
H        8.0544399343   -2.2925236955    0.5390824915
C       10.5113118377    1.6009031033    0.6884785237
H       10.5072182824    2.6842481809    0.7575782400
C       11.6825303940    0.9152285899    0.6093084193
H       12.6279278502    1.4470638142    0.6150397963
C       11.6831829924   -0.5090468681    0.5134772897
H       12.6289972331   -1.0355192152    0.4391156089
C       10.5138281185   -1.2027470390    0.5123698365
H       10.5122976377   -2.2862007817    0.4381253985
C        0.7909458769    0.6091078884    3.7326057410
H       -0.1538248872    0.0782809392    3.7111246626
C        0.7943382475    2.0348626693    3.6721253115
H       -0.1512947504    2.5634313277    3.6165972987
C        1.9643756088    2.7258837688    3.6627901368
H        1.9678347758    3.8105882979    3.6094552037
C        3.2202657077    2.0456642070    3.7288060712
C        3.2176586222    0.6004954719    3.7744520799
C        1.9608985907   -0.0802062874    3.7675565637
H        1.9643678618   -1.1654417952    3.7791593053
C        4.4230141478    2.7251727623    3.7689675093
H        4.4226761484    3.8117664557    3.7470055256
C        5.6524832088    2.0486370492    3.8916020584
C        5.6520408212    0.6009773867    3.9016374235
C        4.4201781951   -0.0780545721    3.8255365551
H        4.4198261176   -1.1640575994    3.8338338817
C        6.8595882048    2.7284521301    4.0600070096
H        6.8563597818    3.8150832851    4.0736981131
C        8.0570185369    2.0502115939    4.2947390531
C        8.0615592408    0.6023065304    4.2744371134
C        6.8630281799   -0.0767386843    4.0464465054
H        6.8644118506   -1.1628621132    4.0407772161
C        9.2473569203    2.7272752391    4.6248440166
H        9.2397015287    3.8135215721    4.6590814144
C       10.3980151113    2.0462747368    4.9764055302
C       10.4071880948    0.6000554228    4.9400245839
C        9.2603899508   -0.0766776293    4.5678411962
H        9.2644016412   -1.1629146837    4.5487118829
C       11.5746331146    2.7241474665    5.4257128940
H       11.5615557252    3.8093591301    5.4653400630
C       12.6737036383    2.0301587741    5.8242625191
H       13.5496673451    2.5580533852    6.1869378918
C       12.6856653472    0.6027887811    5.7813148464
H       13.5718131767    0.0694562587    6.1091619578
C       11.5960625524   -0.0837457235    5.3453589291
H       11.6001831906   -1.1692140768    5.3192346161
72   
Iteration 19 Energy -1692.09560660
C       -0.4279327412   -0.5347320603    0.3967158380
H       -1.3756594189   -1.0620199877    0.4341934646
C       -0.4246284189    0.8901966428    0.3028751381
H       -1.3693656252    1.4228261687    0.2716672083
C        0.7484577055    1.5760255781    0.2713815973
H        0.7555504684    2.6602031351    0.2224607854
C        2.0028526847    0.8939158113    0.3346698282
C        1.9999854816   -0.5508996635    0.4047069969
C        0.7406587417   -1.2280564641    0.4378199737
H        0.7395608847   -2.3117273955    0.5074289804
C        3.2056589283    1.5723656349    0.3656689208
H        3.2052442518    2.6581870387    0.3489147633
C        4.4384490257    0.8939078839    0.4422288708
C        4.4374259466   -0.5537635767    0.4619640615
C        3.2012033687   -1.2309293327    0.4563379536
H        3.1982728842   -2.3168433275    0.4980988413
C        5.6549866647    1.5726561378    0.5055029823
H        5.6541887039    2.6584285998    0.5218647262
C        6.8748399857    0.8929473923    0.5319547489
C        6.8754615273   -0.5539390613    0.5007233269
C        5.6551706135   -1.2333749255    0.4887520745
H        5.6548187068   -2.3199687070    0.4830630112
C        8.1080790922    1.5719756157    0.5527537452
H        8.1072368992    2.6574457555    0.5943348599
C        9.3124494730    0.8949699727    0.4930621675
C        9.3125733434   -0.5496281871    0.4292901756
C        8.1094528134   -1.2308586064    0.4547424856
H        8.1102967453   -2.3166600994    0.4102063144
C       10.5674245496    1.5788437109    0.4562793232
H       10.5647399839    2.6631809430    0.5097538458
C       11.7355485207    0.8931786345    0.3397459763
H       12.6794815584    1.4262133696    0.2988886658
C       11.7347885878   -0.5324639658    0.2637362177
H       12.6777838741   -1.0591385958    0.1607137418
C       10.5669679142   -1.2267134664    0.3149088597
H       10.5640467383   -2.3109058758    0.2533762298
C        0.8219854827    0.6335374602    3.5083123355
H       -0.1222408132    0.1030826527    3.4641687019
C        0.8278264209    2.0591825643    3.4420808959
H       -0.1155709772    2.5882674207    3.3598396469
C        1.9981756101    2.7495094247    3.4624773092
H        2.0037816631    3.8341388891    3.4069541737
C        3.2509305562    2.0692854369    3.5752167223
C        3.2464843191    0.6239431157    3.6222239205
C        1.9901136701   -0.0563291967    3.5765535527
H        1.9924277948   -1.1414696610    3.5933687778
C        4.4499490941    2.7490043537    3.6754850562
H        4.4496966014    3.8357107696    3.6575983111
C        5.6689048048    2.0732070585    3.8826019236
C        5.6696207385    0.6254041082    3.8865344076
C        4.4455014094   -0.0541051492    3.7283128604
H        4.4450339548   -1.1401472076    3.7385731042
C        6.8545246922    2.7530587618    4.1644349333
H        6.8488266637    3.8395745570    4.1825919166
C        8.0206570549    2.0742352303    4.5247137691
C        8.0289600488    0.6260859061    4.4999028697
C        6.8623995680   -0.0526048067    4.1405366977
H        6.8632779541   -1.1388491507    4.1333591396
C        9.1636872932    2.7510531372    4.9937449896
H        9.1520322042    3.8372238099    5.0276822325
C       10.2648932589    2.0696189459    5.4783416851
C       10.2779990551    0.6233911360    5.4425832671
C        9.1851064801   -0.0530116550    4.9323518261
H        9.1906138460   -1.1393652440    4.9151687577
C       11.3818297479    2.7470983237    6.0612049980
H       11.3664787836    3.8324165895    6.0956474434
C       12.4264268453    2.0527958518    6.5856187675
H       13.2561106791    2.5802928222    7.0447717447
C       12.4411968157    0.6254397642    6.5474348496
H       13.2825574170    0.0918879975    6.9771546516
C       11.4096693987   -0.0609243088    5.9876500938
H       11.4162277961   -1.1464850780    5.9640115695
72   
Iteration 21 Energy -1692.09113124
C       -0.2677094499   -0.5364730027    0.0655466014
H       -1.2151023442   -1.0652661861    0.0464565526
C       -0.2614064518    0.8883634746   -0.0279104836
H       -1.2033345868    1.4192785577   -0.1180502094
C        0.9100931948    1.5764817181    0.0118142142
H        0.9180826008    2.6606577228   -0.0375345990
C        2.1601847194    0.8964671851    0.1458172038
C        2.1557795292   -0.5486137019    0.2109742895
C        0.8975646015   -1.2276651060    0.1754006152
H        0.8945067709   -2.3115054423    0.2425383341
C        3.3596203239    1.5757571915    0.2356458726
H        3.3593068364    2.6616685832    0.2215085029
C        4.5903138066    0.8973699543    0.3444398483
C        4.5893313202   -0.5503450745    0.3540952750
C        3.3541389972   -1.2278898048    0.3121497329
H        3.3505730139   -2.3140698993    0.3466104181
C        5.8073286837    1.5755895344    0.4129719807
H        5.8073015632    2.6615433963    0.4264345891
C        7.0277839983    0.8958000596    0.4109300610
C        7.0275116887   -0.5514379917    0.3735432852
C        5.8070412081   -1.2305175841    0.3780403939
H        5.8062093465   -2.3169992440    0.3637587283
C        8.2616494180    1.5743176470    0.3876018165
H        8.2628683573    2.6600970433    0.4231910612
C        9.4624087599    0.8973408107    0.2751144931
C        9.4606237411   -0.5478337094    0.2171691951
C        8.2594412820   -1.2287823642    0.2895937140
H        8.2584247004   -2.3145823573    0.2460080987
C       10.7146658009    1.5809989657    0.1778289084
H       10.7141837137    2.6658082684    0.2220584947
C       11.8769868618    0.8946431548    0.0161312815
H       12.8179202599    1.4276172064   -0.0704165774
C       11.8742178333   -0.5317582075   -0.0469537214
H       12.8126455114   -1.0590690263   -0.1829574574
C       10.7098338939   -1.2255727278    0.0575054183
H       10.7050464036   -2.3102347314    0.0057067345
C        0.7885007956    0.6332732639    3.2294479428
H       -0.1510919541    0.1034837225    3.1222989708
C        0.7980488759    2.0596175341    3.1752679884
H       -0.1384830962    2.5897527755    3.0387325581
C        1.9644454687    2.7489976885    3.2764199771
H        1.9731631601    3.8341595501    3.2322172179
C        3.2064367704    2.0676838171    3.4730391833
C        3.1995256573    0.6215741609    3.5075360392
C        1.9494884097   -0.0577846332    3.3664893754
H        1.9504325671   -1.1430324704    3.3745295124
C        4.3920650454    2.7466864496    3.6778532496
H        4.3925471151    3.8335143126    3.6689220330
C        5.5882451616    2.0695119439    3.9887395548
C        5.5875697050    0.6213564121    3.9939302440
C        4.3840909522   -0.0572441673    3.7162289678
H        4.3811520142   -1.1434018595    3.7282685446
C        6.7419321667    2.7490237844    4.3817662910
H        6.7350231047    3.8355533922    4.3984646714
C        7.8678265286    2.0704036621    4.8529973289
C        7.8755640746    0.6223983842    4.8361831291
C        6.7484313394   -0.0568792873    4.3681883028
H        6.7480861526   -1.1432264463    4.3675682233
C        8.9637843053    2.7481489054    5.4226976227
H        8.9512301313    3.8344823432    5.4496098449
C       10.0169041301    2.0679522723    6.0057391129
C       10.0308993898    0.6216152328    5.9779150603
C        8.9858041410   -0.0559462022    5.3770420853
H        8.9914302741   -1.1424407800    5.3657594139
C       11.0818775823    2.7469942140    6.6773339193
H       11.0653561099    3.8324541951    6.7048346323
C       12.0789790807    2.0542473690    7.2889197709
H       12.8695329685    2.5828607635    7.8113815105
C       12.0953466883    0.6267689071    7.2577923907
H       12.8990401809    0.0944687092    7.7557166090
C       11.1124099353   -0.0612888707    6.6183895922
H       11.1205329613   -1.1469285113    6.5990094800
72   
Iteration 17 Energy -1692.08783713
C       -0.2120947978   -0.5607109420   -0.1862541944
H       -1.1586203018   -1.0900140592   -0.2241609860
C       -0.2050189957    0.8648993970   -0.2699105894
H       -1.1457337004    1.3957358162   -0.3726407005
C        0.9653772980    1.5532021070   -0.2076957782
H        0.9737294163    2.6376191525   -0.2515412689
C        2.2139333588    0.8728085905   -0.0604526156
C        2.2094737234   -0.5727958205   -0.0081939398
C        0.9520801770   -1.2519844828   -0.0649892778
H        0.9486990717   -2.3364225082   -0.0080501809
C        3.4111104216    1.5523305541    0.0500002964
H        3.4107699795    2.6383383591    0.0439023892
C        4.6417335670    0.8731134192    0.1540594723
C        4.6410852539   -0.5743763883    0.1593210187
C        3.4066881693   -1.2524771565    0.1025053935
H        3.4034079046   -2.3388387351    0.1300143951
C        5.8593130255    1.5517466887    0.2098030583
H        5.8583275343    2.6378076625    0.2230807949
C        7.0796521743    0.8722562919    0.2013117145
C        7.0793325292   -0.5751168386    0.1722362741
C        5.8591304268   -1.2542386863    0.1830773530
H        5.8586303625   -2.3406887479    0.1679119474
C        8.3131640777    1.5510828795    0.1611514153
H        8.3140445433    2.6371471438    0.1890177890
C        9.5131857626    0.8739406169    0.0442909213
C        9.5114821687   -0.5717209536   -0.0035597311
C        8.3111859205   -1.2525232130    0.0828225946
H        8.3102945060   -2.3385261692    0.0456640224
C       10.7646170787    1.5575503064   -0.0649502297
H       10.7639951688    2.6426349315   -0.0274108038
C       11.9262731235    0.8704781833   -0.2278328328
H       12.8666093311    1.4032583942   -0.3219353718
C       11.9236744495   -0.5564194136   -0.2816912472
H       12.8616300814   -1.0842829078   -0.4186291606
C       10.7601308770   -1.2499034538   -0.1665622152
H       10.7556857790   -2.3348727231   -0.2106849008
C        0.8966245567    0.6549735312    2.9798796569
H       -0.0344231333    0.1242816614    2.8170514260
C        0.9060768013    2.0817987931    2.9361612150
H       -0.0220129399    2.6109705582    2.7481904947
C        2.0623552043    2.7726163241    3.1136065904
H        2.0709901018    3.8582018414    3.0800736128
C        3.2898818817    2.0923831533    3.3899154180
C        3.2856977017    0.6458168731    3.4072278731
C        2.0492299929   -0.0348378790    3.1779883247
H        2.0516193060   -1.1201662120    3.1791039294
C        4.4527215988    2.7721137123    3.6977374142
H        4.4506042476    3.8589195218    3.6993789849
C        5.6192605717    2.0942279056    4.1058681729
C        5.6222505345    0.6458884798    4.0996614472
C        4.4511806885   -0.0328193818    3.7061466627
H        4.4486942918   -1.1191642610    3.7109224314
C        6.7309553797    2.7734379945    4.6061787809
H        6.7221133556    3.8598970406    4.6237201880
C        7.8091787797    2.0941986191    5.1774833545
C        7.8162006548    0.6460880494    5.1639118735
C        6.7413478628   -0.0326014681    4.5849185307
H        6.7410548179   -1.1190077962    4.5835434896
C        8.8514628124    2.7716731318    5.8407209147
H        8.8417317960    3.8581847673    5.8584178048
C        9.8448076728    2.0916425436    6.5207853319
C        9.8528237721    0.6451292790    6.5066405465
C        8.8665379809   -0.0325729043    5.8135617863
H        8.8694652065   -1.1191470401    5.8091363595
C       10.8506020823    2.7716276069    7.2770601278
H       10.8402676964    3.8573891348    7.2903378593
C       11.7843719032    2.0794492138    7.9822495292
H       12.5302927941    2.6091805409    8.5655384100
C       11.7923185088    0.6515619922    7.9687174293
H       12.5441363149    0.1194668808    8.5421163196
C       10.8662998002   -0.0375178580    7.2502348180
H       10.8684612820   -1.1233238221    7.2427787590
72   
Iteration 15 Energy -1692.08487448
C       -0.1728201821   -0.6368733899   -0.4042665271
H       -1.1197536320   -1.1650482203   -0.4465267831
C       -0.1623708805    0.7881398207   -0.5003132894
H       -1.1009213949    1.3193453967   -0.6196780010
C        1.0085413786    1.4749601371   -0.4302823785
H        1.0197102419    2.5589431682   -0.4836217646
C        2.2540891837    0.7936732833   -0.2623280421
C        2.2476589748   -0.6516055419   -0.2064139529
C        0.9894071105   -1.3290232894   -0.2685124682
H        0.9836297779   -2.4131050996   -0.2049970189
C        3.4490339649    1.4727019038   -0.1292926280
H        3.4492885908    2.5586618158   -0.1325296632
C        4.6782904021    0.7922832200   -0.0165785715
C        4.6779284649   -0.6553506849   -0.0234700088
C        3.4433380473   -1.3327277701   -0.0870017548
H        3.4389792194   -2.4190917885   -0.0600579788
C        5.8954483326    1.4706507588    0.0491591293
H        5.8939838184    2.5566348627    0.0696953220
C        7.1159235515    0.7916782864    0.0256195717
C        7.1161260330   -0.6556407407   -0.0130656555
C        5.8961309466   -1.3352174723   -0.0020312272
H        5.8959516566   -2.4215650643   -0.0227988853
C        8.3486062781    1.4714602503   -0.0258366608
H        8.3490386292    2.5574927060    0.0032995420
C        9.5477303661    0.7955351747   -0.1577878063
C        9.5470920448   -0.6502272392   -0.2048220315
C        8.3479622210   -1.3320712685   -0.1110292845
H        8.3476567544   -2.4180018191   -0.1497595911
C       10.7971906937    1.4804192682   -0.2817337479
H       10.7954796285    2.5656329594   -0.2479875828
C       11.9581140359    0.7943090107   -0.4535373484
H       12.8967710382    1.3280108301   -0.5586647898
C       11.9570349877   -0.6328323529   -0.5018805497
H       12.8946726634   -1.1598947951   -0.6438743723
C       10.7953127906   -1.3273761939   -0.3755583113
H       10.7919366680   -2.4124844415   -0.4157619396
C        1.0556899869    0.7344967235    2.7374408274
H        0.1362993077    0.2041562888    2.5174489125
C        1.0705763883    2.1609966829    2.6854543689
H        0.1570013051    2.6903536758    2.4367269420
C        2.2146657999    2.8513701776    2.9311513214
H        2.2265909466    3.9368253895    2.8936056818
C        3.4194763653    2.1709843699    3.2944844442
C        3.4111158517    0.7245572195    3.3203006347
C        2.1915631933    0.0443063842    3.0134932507
H        2.1914631103   -1.0410209289    3.0214288182
C        4.5565195483    2.8505991381    3.6878249997
H        4.5554484643    3.9374164728    3.6865209564
C        5.6822109176    2.1728671599    4.1989363861
C        5.6842649015    0.7246523650    4.1967400725
C        4.5495617488    0.0454647034    3.7093940604
H        4.5447572254   -1.0408964143    3.7164289258
C        6.7413066701    2.8522778882    4.8029994286
H        6.7308286989    3.9387266136    4.8197887337
C        7.7580587942    2.1733608980    5.4783364318
C        7.7678212933    0.7253248163    5.4638042479
C        6.7535050230    0.0465102378    4.7847024481
H        6.7529552701   -1.0399202964    4.7851748205
C        8.7288461206    2.8507528023    6.2425474757
H        8.7148734353    3.9371228668    6.2629906906
C        9.6543181553    2.1701377011    7.0121550475
C        9.6683108006    0.7238065328    6.9926999762
C        8.7526621089    0.0462553093    6.2086588760
H        8.7583848528   -1.0402711618    6.2010798970
C       10.5829858137    2.8494506055    7.8616967061
H       10.5666109866    3.9350280934    7.8798663012
C       11.4522196847    2.1565473316    8.6445618930
H       12.1397932336    2.6859287666    9.2958153229
C       11.4680237860    0.7287261153    8.6233476634
H       12.1682273550    0.1957527100    9.2579375300
C       10.6127674848    0.0403290336    7.8213207160
H       10.6202619701   -1.0453735733    7.8073511013
72   
Iteration 36 Energy -1692.08453433
C       -1.1895804929   -0.5122074556   -0.5384085464
H       -2.1354115939   -1.0397911843   -0.4748849706
C       -1.1871086370    0.9155235422   -0.5755196593
H       -2.1308414478    1.4492757277   -0.5377356029
C       -0.0159032429    1.6016246392   -0.6575642405
H       -0.0110248152    2.6871913016   -0.6873528388
C        1.2386565324    0.9164446492   -0.6906595265
C        1.2367690177   -0.5294956818   -0.6483106030
C       -0.0213510335   -1.2067854837   -0.5813975241
H       -0.0216435332   -2.2922501666   -0.5522640008
C        2.4436478180    1.5931551241   -0.7117267622
H        2.4460001874    2.6792255161   -0.7233776492
C        3.6764335783    0.9140663961   -0.6696756623
C        3.6756944627   -0.5330787492   -0.6491130858
C        2.4400655410   -1.2105621871   -0.6442456683
H        2.4378560359   -2.2968518949   -0.6171366770
C        4.8931708767    1.5943935083   -0.6205078136
H        4.8907992745    2.6804478810   -0.6101915455
C        6.1124286605    0.9158295701   -0.5815794734
C        6.1138456849   -0.5319097161   -0.5994871301
C        4.8945991300   -1.2121116324   -0.6226689069
H        4.8951863105   -2.2985976015   -0.6213108008
C        7.3453813465    1.5959442413   -0.5470359005
H        7.3436690637    2.6820861736   -0.5244528005
C        8.5504578117    0.9187453490   -0.5591167290
C        8.5525741471   -0.5272733361   -0.5964746431
C        7.3495869562   -1.2085875792   -0.6047491199
H        7.3521281158   -2.2948708838   -0.6295029894
C        9.8064637375    1.6025923960   -0.5529583749
H        9.8019069638    2.6878217401   -0.5211711009
C       10.9782055688    0.9147656419   -0.5929259062
H       11.9234547478    1.4471000348   -0.5935030090
C       10.9802722838   -0.5125579391   -0.6364255616
H       11.9272074765   -1.0408302155   -0.6718854224
C        9.8110217455   -1.2059315611   -0.6343335659
H        9.8106878728   -2.2911945719   -0.6681787779
C        2.3521486741    0.6066442216    2.4532281290
H        1.4853864788    0.0773831780    2.0745026072
C        2.3487602324    2.0346512592    2.4569771438
H        1.4743510768    2.5575244270    2.0845193737
C        3.4251825015    2.7290580462    2.9095239443
H        3.4252504024    3.8151309792    2.9105581816
C        4.5696487945    2.0488912561    3.4341167029
C        4.5759470130    0.6019355840    3.4235790020
C        3.4365893729   -0.0812716151    2.8930807838