25   
Iteration 0 Energy -502.60660663
C        0.6608222235    0.5377802245   -0.7830877343
C       -0.4998312439    1.2215846513   -0.4101258746
C       -1.3989624287    0.6113469960    0.4723073931
C        1.0390801733   -0.6497381729   -0.1426668163
C        2.3702025704   -1.3146230274   -0.4573982909
C       -1.1048804596   -0.6437294450    1.0062053672
C        5.8669842527    1.1603093223    0.2153598156
C        4.9582694147    0.9267189708    1.2512821240
C        0.1249537046   -1.2475455825    0.7342222777
C        3.8305393371    0.1383533076    1.0300125155
C        3.5890279753   -0.4345419894   -0.2273688521
C        4.5053606633   -0.1917055414   -1.2566845947
C        5.6368145238    0.5991177688   -1.0400625855
H        1.3731935835    1.0269509607   -1.4446396931
H       -0.5420749527    2.3030030550   -0.5214738828
H       -2.3001899013    1.1356045202    0.7803099244
H        2.4596494049   -2.2239717509    0.1517280129
H        2.3716796152   -1.6507631492   -1.5027135899
H       -1.8036356719   -1.1252878506    1.6856775419
H        6.7458883053    1.7759283236    0.3873911728
H        5.1287947070    1.3607965066    2.2332389721
H        0.3828280354   -2.1877181801    1.2173024540
H        3.1231705169   -0.0319953348    1.8382563024
H        4.3337661842   -0.6284414413   -2.2383076008
H        6.3355234437    0.7754593326   -1.8539161643
25   
Iteration 1 Energy -502.59534385
C        0.8560407067    0.6313046944   -0.4806152154
C       -0.2698310877    1.3283618928   -0.0355011265
C       -1.3011532729    0.6241663261    0.5969985737
C        1.0455020043   -0.7188574282   -0.1611271993
C        2.3784808841   -1.3964440440   -0.4382020449
C       -1.1696008808   -0.7446904602    0.8375492018
C        5.7630539144    1.2589844117    0.0786164189
C        4.7434850464    1.2200663626    1.0340685761
C        0.0232592951   -1.3975684082    0.5149285965
C        3.6611873224    0.3576750368    0.8692057695
C        3.5922589138   -0.5026202297   -0.2363126491
C        4.5964602899   -0.4244455690   -1.2075267401
C        5.6827415092    0.4396613382   -1.0468644588
H        1.6775783915    1.1888633367   -0.9263991761
H       -0.2074704808    2.4009382949    0.1352231037
H       -2.1767199295    1.1559433320    0.9609495470
H        2.2564367702   -2.3159969535    0.1495721267
H        2.5906391384   -1.7084791782   -1.4693660770
H       -1.9648392145   -1.2885991220    1.3410988644
H        6.6053502198    1.9338956554    0.2054403687
H        4.7888294370    1.8684896690    1.9054080057
H        0.1624728805   -2.4400627683    0.7935358067
H        2.8593794116    0.3487530923    1.6038312560
H        4.5332246205   -1.0521930790   -2.0939237630
H        6.4602080872    0.4757462718   -1.8057395709
25   
Iteration 2 Energy -502.56871915
C        0.9673124046    0.6632637675   -0.2497323389
C       -0.1416656655    1.3482282711    0.2514744087
C       -1.2475667370    0.6159730832    0.6992314610
C        1.0491448470   -0.7324042805   -0.1796383792
C        2.3799935405   -1.4223608588   -0.4363460706
C       -1.2067950799   -0.7798745662    0.7170557996
C        5.7098323090    1.3094310871   -0.0190554229
C        4.6061117087    1.4024008526    0.8338493681
C       -0.0349677757   -1.4466531802    0.3471772888
C        3.5474869499    0.5045019600    0.7097343306
C        3.5961909168   -0.5315826027   -0.2341937897
C        4.6702075503   -0.5704213523   -1.1299820254
C        5.7332861054    0.3284282465   -1.0099601720
H        1.8488039649    1.2326015732   -0.5383643095
H       -0.0310994522    2.3678119463    0.6142047701
H       -2.1111670785    1.1359097478    1.1062879841
H        2.1082473478   -2.3311072618    0.1171014050
H        2.7351657997   -1.7277885831   -1.4294974280
H       -2.0567174348   -1.3449107064    1.0914086429
H        6.5331021777    2.0126810344    0.0743224048
H        4.5655596977    2.1835238159    1.5887996330
H        0.0367675632   -2.5256636058    0.4671975149
H        2.6758504666    0.6020428297    1.3526300674
H        4.6821859514   -1.3187465870   -1.9196955954
H        6.5717038992    0.2676078437   -1.6991613532
25   
Iteration 3 Energy -502.52746778
C        1.0285836553    0.6698507512   -0.0859165894
C       -0.0721576725    1.3356552184    0.4566366752
C       -1.2195402818    0.6003965789    0.7771571417
C        1.0502076817   -0.7253544267   -0.1928758564
C        2.3783658783   -1.4235994137   -0.4416933977
C       -1.2291654681   -0.7894605366    0.6371944423
C        5.6849187552    1.3354580333   -0.0865205432
C        4.5246383334    1.5149134992    0.6725227498
C       -0.0689639320   -1.4550307405    0.2292631746
C        3.4770521080    0.6007232497    0.5767543414
C        3.5986109833   -0.5406028188   -0.2289793546
C        4.7213730143   -0.6600075817   -1.0550276063
C        5.7739185489    0.2544107984   -0.9631754927
H        1.9425649140    1.2318469209   -0.2682329487
H        0.0603264200    2.2983926799    0.9453752128
H       -2.0776383386    1.1035700931    1.2156743173
H        2.0054957743   -2.3161306557    0.0782437474
H        2.8286753570   -1.7297440386   -1.3952669138
H       -2.1099118018   -1.3593284606    0.9223132764
H        6.4993843829    2.0515694312   -0.0166399419
H        4.4306289877    2.3768670192    1.3282270097
H       -0.0350559879   -2.5425233988    0.2349480463
H        2.5596568053    0.7660788394    1.1367188856
H        4.7808813017   -1.4837626019   -1.7633169260
H        6.6541245583    0.1287040353   -1.5885352557
25   
Iteration 4 Energy -502.51299261
C        0.9443657035    0.7281375205    0.0369936363
C       -0.1971945357    1.3095403132    0.5933330431
C       -1.3275728144    0.5161664460    0.8157690336
C        1.0299810504   -0.6510087369   -0.1966855022
C        2.3704470828   -1.3444108551   -0.4283215486
C       -1.2761486554   -0.8559098923    0.5659162665
C        5.8020416915    1.2932971381   -0.1518076253
C        4.6354128588    1.5877377746    0.5582589142
C       -0.0785402668   -1.4401932154    0.1426340888
C        3.5436347456    0.7223554227    0.5053464981
C        3.6161469522   -0.4933213125   -0.1936985178
C        4.7492145300   -0.7164422575   -0.9852048783
C        5.8478653195    0.1454598457   -0.9409229841
H        1.8379569945    1.3384721302   -0.0605274135
H       -0.1145556341    2.2324819591    1.1631692654
H       -2.2164087596    0.9520877310    1.2650020880
H        1.9286546485   -2.2207575724    0.0645846424
H        2.8810823569   -1.6528356986   -1.3504306251
H       -2.1400631932   -1.4806985898    0.7780466267
H        6.6510075613    1.9709049046   -0.1175215356
H        4.5695942576    2.5035953245    1.1402295250
H       -0.0062305946   -2.5233061572    0.0678406508
H        2.6256041604    0.9854676980    1.0224654104
H        4.7806747462   -1.5905392030   -1.6324313904
H        6.7300037709   -0.0733882429   -1.5371894742
25   
Iteration 5 Energy -502.51967007
C        0.6579614784    0.9108526009    0.1356300869
C       -0.5827321301    1.2987137927    0.6588465604
C       -1.5892230873    0.3444040671    0.8304738521
C        1.0377185127   -0.4171660005   -0.1889454153
C        2.3591672289   -1.1796446099   -0.4145810866
C       -1.2712344454   -0.9751452667    0.5396478342
C        6.0450412010    1.1425535536   -0.2013924569
C        4.9242180110    1.5936404685    0.5047347088
C        0.0211332341   -1.3164260941    0.1183973939
C        3.7568920292    0.8290646900    0.4719846793
C        3.6772329812   -0.4382636057   -0.1649279199
C        4.7672673849   -0.7776517695   -0.9498021006
C        5.9526806462   -0.0286346612   -0.9461775926
H        1.4507099618    1.6736317398    0.1135833278
H       -0.6696636496    2.2199191341    1.2324475654
H       -2.5538948880    0.6104071497    1.2568795858
H        1.8429480396   -2.0260127302    0.0740447941
H        2.8599899094   -1.5400320027   -1.3349678824
H       -2.0110924485   -1.7543655463    0.7030885174
H        6.9634554894    1.7240739989   -0.2037327345
H        4.9562500093    2.5380066876    1.0435891376
H        0.2532054391   -2.3725504194    0.0055549469
H        2.8389681958    1.2100683997    0.9530355022
H        4.7011366518   -1.6691783721   -1.5688252588
H        6.7988382219   -0.3573727300   -1.5437378508
25   
Iteration 6 Energy -502.53773384
C        0.7341361326    0.8933454834    0.1490509136
C       -0.5107985504    1.3336830924    0.6151590412
C       -1.5253126467    0.4100014885    0.8876887207
C        1.0247339812   -0.4556835253   -0.2825863184
C        2.3813322798   -1.2527496937   -0.4963891407
C       -1.2369535545   -0.9250404765    0.6856381214
C        5.9852614205    1.1672008598   -0.1099930155
C        4.8372437813    1.5144513739    0.6197357290
C        0.0080495311   -1.3004364527    0.1583710046
C        3.7060843489    0.7035782305    0.5144171713
C        3.7340617054   -0.5787673840   -0.1511047927
C        4.8065485392   -0.7533991796   -0.9882544926
C        5.9497400197    0.0684487368   -0.9527872049
H        1.5991150619    1.6135413280    0.1488126807
H       -0.6608898538    2.3780734358    0.8871315300
H       -2.4935407098    0.7260707307    1.2696981793
H        2.1074909870   -2.1540827753    0.0822516375
H        2.6063863938   -1.6719015155   -1.5109076486
H       -1.9746956229   -1.6829360633    0.9353210300
H        6.8697208346    1.7991016333   -0.0756135808
H        4.8118337421    2.4501808647    1.1738613222
H        0.1829724875   -2.3695320777    0.0658116893
H        2.6688825292    1.0698371097    0.7743927449
H        4.7751943171   -1.5899171280   -1.6825400800
H        6.8003768221   -0.1501756213   -1.5923170470
25   
Iteration 7 Energy -502.54688735
C        0.6085884407    0.9167951817    0.2781422049
C       -0.6847104813    1.2502133506    0.6671073325
C       -1.6422107997    0.2488624428    0.8603896011
C        0.9390181363   -0.4117541677   -0.1983878027
C        2.3511773841   -1.0635251930   -0.4593684287
C       -1.2910814109   -1.0706323813    0.6387915182
C        6.1894831872    1.0348032541   -0.1388112925
C        5.0944088079    1.5625266561    0.5646778437
C       -0.0161724385   -1.3784760968    0.1431858857
C        3.8461424300    0.9586227406    0.4743569405
C        3.6632249672   -0.3269365737   -0.1593799925
C        4.7233402101   -0.6916358178   -0.9653072730
C        5.9831712265   -0.0613919907   -0.9555778834
H        1.4168172493    1.6934581437    0.3437909851
H       -0.9454374476    2.2884053745    0.8607921365
H       -2.6471199865    0.5050937440    1.1863147335
H        2.0757086108   -1.9585252521    0.1241421229
H        2.6627972524   -1.4791279944   -1.4482907002
H       -2.0020032141   -1.8683215668    0.8357401918
H        7.1608295176    1.5229102766   -0.1016626337
H        5.2131202279    2.5026067092    1.0981246657
H        0.2178422320   -2.4298972612   -0.0157501814
H        2.8934520065    1.4988277320    0.6754419656
H        4.5872267535   -1.5624403831   -1.6046969802
H        6.7893611152   -0.4375684527   -1.5789167649
25   
Iteration 8 Energy -502.54705356
C        0.5896555256    0.9378671207    0.4531461532
C       -0.7135605002    1.2206496164    0.8413409336
C       -1.6793550397    0.2121943747    0.8901936440
C        0.9829371943   -0.3278432238   -0.0940595683
C        2.3545772959   -0.9732425129   -0.4455367798
C       -1.2794317088   -1.0704240502    0.5434147491
C        6.1710161733    0.9958242089   -0.1441605001
C        5.0449155884    1.6259769515    0.4110341990
C        0.0203036913   -1.3275433488    0.0836756737
C        3.8050513968    1.0243642025    0.2899558036
C        3.6972321237   -0.3051226056   -0.2525955217
C        4.7828167848   -0.8140244930   -0.9631541657
C        6.0322252730   -0.1749493311   -0.8708590289
H        1.3515448019    1.7253247503    0.6005577130
H       -0.9954772681    2.2346172423    1.1109566063
H       -2.6962546175    0.4246550253    1.2105257431
H        2.0589248888   -1.8449675358    0.1628260813
H        2.6321582141   -1.3949880435   -1.4307183691
H       -1.9805963787   -1.8953763248    0.6330564707
H        7.1447081218    1.4716746399   -0.0584396110
H        5.1413871064    2.6091472314    0.8662147472
H        0.2766207369   -2.3484384701   -0.1929924615
H        2.8687018714    1.5844050469    0.3855948491
H        4.6868430383   -1.7430766863   -1.5243580013
H        6.8900296631   -0.6038113104   -1.3807711651
25   
Iteration 9 Energy -502.55933812
C        0.6205980102    0.9155421935    0.5147974507
C       -0.6845285944    1.2019654450    0.9019674757
C       -1.6700274813    0.2120630901    0.8767701043
C        1.0076535249   -0.3404614836   -0.0275139734
C        2.3518741798   -0.9730489595   -0.4348347968
C       -1.3059399489   -1.0737396916    0.4940017771
C        6.1678635296    0.9971851491   -0.1270683215
C        5.0157094140    1.6498704082    0.3474674669
C        0.0108758475   -1.3100894539    0.0750013042
C        3.7753414531    1.0503889587    0.1998343282
C        3.6727806450   -0.2834851355   -0.3161322064
C        4.7861769036   -0.8158562068   -0.9524741181
C        6.0421243473   -0.1925512706   -0.8282654685
H        1.3877417995    1.6681373943    0.7422079464
H       -0.9528502064    2.2024563327    1.2292052591
H       -2.6849592750    0.4358482809    1.1941322409
H        2.1601198104   -1.8483734387    0.2142582146
H        2.5229083379   -1.3984817000   -1.4402775410
H       -2.0227359783   -1.8900172258    0.5347656122
H        7.1401398874    1.4687600060   -0.0077579144
H        5.1004068193    2.6502695505    0.7672144183
H        0.2716981252   -2.3151714058   -0.2448993699
H        2.8577369878    1.6383741149    0.1884067594
H        4.7022222808   -1.7614257694   -1.4832816793
H        6.9140435577   -0.6452667080   -1.2926767744
25   
Iteration 10 Energy -502.57358291
C        0.6942600142    0.8177956091    0.5687955172
C       -0.6116941772    1.1628249542    0.9366398796
C       -1.6706014591    0.2625243077    0.8406211172
C        0.9994364190   -0.4563721298    0.0396112703
C        2.3445098379   -1.0105409111   -0.4012460396
C       -1.3161940100   -1.0177384038    0.4256994712
C        6.1610193771    1.0368636934   -0.1212037548
C        5.0003547563    1.7109676034    0.2969051215
C       -0.0274989333   -1.3986099064    0.0441297572
C        3.7570681642    1.1018343213    0.1426326661
C        3.6177805115   -0.2374558697   -0.3336408396
C        4.7536578113   -0.7666470215   -0.9051757121
C        6.0234431472   -0.1700169342   -0.7929873259
H        1.4960457367    1.4665695368    0.9277899565
H       -0.8077855283    2.1581313386    1.3260687181
H       -2.6839989262    0.5272327913    1.1337482467
H        2.3882139065   -1.9032860417    0.2622708570
H        2.3227799208   -1.4340098238   -1.4255577714
H       -2.0890676580   -1.7798537628    0.4101847360
H        7.1363424706    1.4994552142    0.0046117884
H        5.0810673245    2.7305236238    0.6695782796
H        0.1856762217   -2.4087135085   -0.2998980616
H        2.8742164817    1.7333974784    0.0117620713
H        4.6661952245   -1.7280376224   -1.4031868959
H        6.8917473434   -0.6539460619   -1.2333048586
25   
Iteration 11 Energy -502.57663720
C        0.7467738750    0.8029584795    0.6444538843
C       -0.5738365621    1.1653694062    0.9547720472
C       -1.5906924100    0.2273976613    0.7778188003
C        0.9820630995   -0.4893327096    0.1211761245
C        2.3356101230   -0.9986198305   -0.3507485742
C       -1.4015479844   -1.0857477524    0.3578992309
C        6.1700365775    1.0540145345   -0.1723971459
C        5.0150220203    1.7331614676    0.2364518864
C       -0.0844194130   -1.3998271848    0.0416960654
C        3.7433751465    1.1619370634    0.1445404511
C        3.6121307533   -0.1832012005   -0.3208658702
C        4.7462987177   -0.7588796850   -0.8658547297
C        6.0202279227   -0.1762221151   -0.7955344395
H        1.5582748545    1.3704376316    1.1045805078
H       -0.7827099553    2.1476557799    1.3756975746
H       -2.6049246108    0.5336161859    1.0148365220
H        2.5176980579   -1.9039276202    0.2708138635
H        2.1991180506   -1.4119865102   -1.3733269503
H       -2.2123281626   -1.8070455497    0.2757169653
H        7.1500033169    1.5124505897   -0.0711565554
H        5.1111415574    2.7606298685    0.5781774103
H        0.1382724885   -2.4046087204   -0.3134690982
H        2.8691955315    1.8271935412    0.0303428390
H        4.6438550874   -1.7430920132   -1.3222461525
H        6.8783358949   -0.6914388436   -1.2185264623
25   
Iteration 12 Energy -502.58401661
C        0.7294086633    0.7731000669    0.6276649419
C       -0.5814880359    1.1615647731    0.9442086610
C       -1.6443492339    0.2678546644    0.8101826123
C        0.9941081289   -0.5087565696    0.0916394067
C        2.3530485249   -1.0424684003   -0.3900454495
C       -1.3981104278   -1.0393220421    0.3944823378
C        6.1646087741    1.0831860168   -0.1774158482
C        5.0046112910    1.7420420682    0.2452572862
C       -0.0937353406   -1.3945181896    0.0469322193
C        3.7520399650    1.1343875880    0.1375674843
C        3.6246885346   -0.2026368505   -0.3380084413
C        4.7748780769   -0.7747029522   -0.8644884680
C        6.0320000984   -0.1582298927   -0.7880593381
H        1.5588555844    1.3655316331    1.0303070396
H       -0.7619159124    2.1539408766    1.3529868731
H       -2.6571821801    0.5794580468    1.0533171712
H        2.5071154698   -1.9559899269    0.2144543561
H        2.2794086521   -1.4298533986   -1.4266301485
H       -2.2065107694   -1.7643396612    0.3296990055
H        7.1390264121    1.5558122198   -0.0836524672
H        5.0762606993    2.7637768397    0.6098496918
H        0.0901788618   -2.4103342750   -0.2970993331
H        2.8507839081    1.7685324911    0.1141270459
H        4.6960526609   -1.7648073318   -1.3125293973
H        6.9031915714   -0.6603353197   -1.1998990471
25   
Iteration 13 Energy -502.58762668
C        0.6976002477    0.7661606722    0.6465149250
C       -0.6079311863    1.1571442520    0.9591980633
C       -1.6672833506    0.2645406547    0.8096235500
C        0.9903629700   -0.5063999568    0.1017467778
C        2.3526837501   -1.0215369212   -0.3864655870
C       -1.3780307070   -1.0323213944    0.3892399974
C        6.1685871218    1.0701926231   -0.2013539548
C        5.0199013031    1.7430482519    0.2237955544
C       -0.0796884205   -1.4091046733    0.0424218786
C        3.7592957311    1.1500893228    0.1329336259
C        3.6252269878   -0.1775698598   -0.3408323218
C        4.7790786225   -0.7741736044   -0.8471530215
C        6.0462514726   -0.1851526914   -0.7887527073
H        1.5163083933    1.3676829774    1.0471956741
H       -0.7897258002    2.1478826080    1.3693039814
H       -2.6868652976    0.5617429379    1.0414074055
H        2.5173439674   -1.9408652862    0.1957849170
H        2.2815234207   -1.3747309583   -1.4308143859
H       -2.1789985995   -1.7630688982    0.3149068602
H        7.1439425979    1.5428294169   -0.1203990346
H        5.1005790397    2.7658427246    0.5838520178
H        0.0992927119   -2.4236717241   -0.3099361680
H        2.8731835915    1.7889249148    0.1536004681
H        4.6890897544   -1.7710235179   -1.2746070215
H        6.9152456553   -0.7035693959   -1.1863632998
25   
Iteration 14 Energy -502.59183662
C        0.6771734004    0.7812063023    0.6696664931
C       -0.6378884987    1.0998334856    0.9802148412
C       -1.7121967937    0.2310639991    0.8106114743
C        0.9763758685   -0.4866160372    0.1193252111
C        2.3366624815   -0.9768509639   -0.3693086331
C       -1.3670230976   -1.0404947585    0.3640121923
C        6.1959611022    1.0886146994   -0.2709089431
C        5.0798573801    1.7841073776    0.1738554310
C       -0.0671042235   -1.4116656123    0.0213305739
C        3.8282969633    1.1600514782    0.1159400166
C        3.6254325868   -0.1405014806   -0.3356274427
C        4.7617354507   -0.8310543563   -0.7917470580
C        6.0035503671   -0.2086704244   -0.7591003239
H        1.4713944351    1.4328181384    1.0154902046
H       -0.8311700459    2.0831726934    1.3975771846
H       -2.7372396074    0.5136798384    1.0346319182
H        2.5158667012   -1.9178194394    0.1481881355
H        2.2465577317   -1.2348686036   -1.4307097842
H       -2.1484972320   -1.7856472308    0.2573744609
H        7.1835857026    1.5433257723   -0.2589520870
H        5.1592217525    2.8067982522    0.5358041623
H        0.1122102425   -2.4182473593   -0.3564681786
H        2.9826106880    1.7801080956    0.3343374901
H        4.6647504625   -1.8501418113   -1.1572926015
H        6.8668501590   -0.7593095806   -1.1233965431
25   
Iteration 15 Energy -502.59728128
C        0.6283542374    0.7872477637    0.6580598227
C       -0.6807240568    1.1200324556    0.9953897764
C       -1.7102730713    0.1947551153    0.8258297149
C        0.9620920891   -0.4710509650    0.1095841869
C        2.3378623109   -0.9466910819   -0.3534793677
C       -1.3738499730   -1.0701231931    0.3480508630
C        6.2139101016    1.0664772367   -0.3229804299
C        5.1114920663    1.7656019198    0.1481766124
C       -0.0671664748   -1.4133865255   -0.0070275178
C        3.8306569108    1.1896837723    0.1562695852
C        3.6285275184   -0.1074460245   -0.2973571069
C        4.7695889223   -0.8061441755   -0.7441945719
C        6.0384799082   -0.2462763490   -0.7786214460
H        1.4143770046    1.4928888141    0.9034508504
H       -0.8937829925    2.1053127347    1.4024152315
H       -2.7392429689    0.4493374114    1.0653079696
H        2.5298417499   -1.8994047549    0.1432482192
H        2.2423530906   -1.1871666657   -1.4220667541
H       -2.1515069336   -1.8196741827    0.2336129620
H        7.1992437775    1.5249702657   -0.3401837295
H        5.2246793641    2.7821539787    0.5165430376
H        0.1326195092   -2.4117913683   -0.3947060178
H        3.0118789558    1.7947393126    0.5082604571
H        4.6409031117   -1.8305426936   -1.0843791735
H        6.8866598194   -0.8206103262   -1.1443549796
25   
Iteration 16 Energy -502.59918801
C        0.6009978099    0.8157391879    0.6652982715
C       -0.7248143366    1.0995537597    1.0012097070
C       -1.7328928091    0.1492733137    0.8398545304
C        0.9558073402   -0.4304706074    0.1185557879
C        2.3413509358   -0.9001695891   -0.3370692878
C       -1.3972854107   -1.1064050869    0.3361024103
C        6.2359546800    1.0328423164   -0.3223237820
C        5.1541159680    1.7688586331    0.1455856839
C       -0.0735098151   -1.3800974935   -0.0116417625
C        3.8689747752    1.2078792321    0.1635917243
C        3.6490008234   -0.0981511532   -0.2914136570
C        4.7737913534   -0.8128107047   -0.7574590451
C        6.0542406179   -0.2745087877   -0.7854077420
H        1.3498562614    1.5675445197    0.8755162486
H       -0.9692747296    2.0802184208    1.4019569380
H       -2.7608219457    0.3837197093    1.1037940308
H        2.5378526731   -1.8508645128    0.1744027012
H        2.2241459219   -1.1755289164   -1.3986249094
H       -2.1580036892   -1.8732837725    0.2123845770
H        7.2287801557    1.4734572511   -0.3340072609
H        5.2908248887    2.7879254218    0.4986514060
H        0.1636678612   -2.3643713163   -0.4116234420
H        3.0523973175    1.8355082175    0.4960459493
H        4.6271079663   -1.8330259973   -1.1082037903
H        6.8947093633   -0.8599395709   -1.1503270929
25   
Iteration 17 Energy -502.59880355
C        0.5843252715    0.8142704033    0.6670249234
C       -0.7339758180    1.1145222426    1.0298599072
C       -1.7149217563    0.1417349105    0.8568746903
C        0.9515546963   -0.4220891748    0.1260151862
C        2.3363970214   -0.8879781487   -0.3274973867
C       -1.3911049432   -1.1054827495    0.3180084630
C        6.2671855988    1.0447616669   -0.3162314906
C        5.1565940371    1.7542543452    0.1287306594
C       -0.0727912083   -1.3757251814   -0.0371383601
C        3.8722033955    1.1961973615    0.1529163423
C        3.6521656603   -0.1146778543   -0.2986464604
C        4.7725576201   -0.8330288373   -0.7629919869
C        6.0405228500   -0.2589686740   -0.7643906174
H        1.3161120282    1.5901938755    0.8260315284
H       -0.9801712733    2.0914463558    1.4392567558
H       -2.7402057067    0.3584101258    1.1435053122
H        2.5345759691   -1.8324251820    0.2036356371
H        2.1957875719   -1.2042614228   -1.3749718288
H       -2.1556395332   -1.8671292589    0.1840995820
H        7.2613281063    1.4844740040   -0.3200768766
H        5.2825632759    2.7769808434    0.4731224547
H        0.1788301502   -2.3482086167   -0.4563400822
H        3.0540184058    1.8276037060    0.4772510266
H        4.6393935531   -1.8540066934   -1.1200447074
H        6.8796690043   -0.8479755724   -1.1231544770
25   
Iteration 18 Energy -502.59998771
C        0.6031841737    0.8223220164    0.6645979945
C       -0.7209778251    1.0979336420    1.0236276993
C       -1.7208189794    0.1447863951    0.8531801848
C        0.9569267796   -0.4195596718    0.1275170358
C        2.3360605473   -0.8924058279   -0.3250906570
C       -1.3872709538   -1.0998624932    0.3152050205
C        6.2414430642    1.0407313720   -0.3266294815
C        5.1446802205    1.7643400518    0.1301930262
C       -0.0690298727   -1.3691990018   -0.0372500730
C        3.8656886814    1.1947098606    0.1540284219
C        3.6491118130   -0.1119666217   -0.2936861011
C        4.7730741216   -0.8271265946   -0.7518257850
C        6.0466738520   -0.2694200009   -0.7729192116
H        1.3375657448    1.5973735392    0.8241256818
H       -0.9628721150    2.0726549416    1.4396108391
H       -2.7463382370    0.3672551557    1.1349797583
H        2.5259233520   -1.8351039162    0.2083409345
H        2.2043235918   -1.2074762843   -1.3718034768
H       -2.1494994857   -1.8620591137    0.1749067023
H        7.2326690834    1.4857857142   -0.3372343875
H        5.2732253227    2.7855390967    0.4799572753
H        0.1802702409   -2.3426355123   -0.4561914579
H        3.0501173619    1.8111783515    0.5027227243
H        4.6354160251   -1.8489739171   -1.1008186405
H        6.8874274696   -0.8559287070   -1.1346958324
25   
Iteration 19 Energy -502.60003019
C        0.5915226862    0.8228152971    0.6565886593
C       -0.7318597358    1.1019720687    1.0158481188
C       -1.7278698738    0.1448916023    0.8492163699
C        0.9550478375   -0.4183833326    0.1204132644
C        2.3392815190   -0.8946975973   -0.3249432900
C       -1.3886604687   -1.1023691975    0.3196308432
C        6.2434725285    1.0400295905   -0.3328001684
C        5.1559540954    1.7672046060    0.1388220991
C       -0.0704830144   -1.3714054110   -0.0342561782
C        3.8776718441    1.1966321254    0.1644469749
C        3.6512907242   -0.1095483082   -0.2825851632
C        4.7705722594   -0.8246460876   -0.7526051248
C        6.0442294317   -0.2679806220   -0.7824367419
H        1.3252697910    1.5988298275    0.8176834934
H       -0.9746007732    2.0773108387    1.4301006633
H       -2.7549630142    0.3647103280    1.1271593213
H        2.5289234476   -1.8330482494    0.2146973810
H        2.2200151896   -1.2139626129   -1.3714374099
H       -2.1498867334   -1.8660901923    0.1822498644
H        7.2355553452    1.4826533385   -0.3517817748
H        5.2895047771    2.7860550400    0.4937902497
H        0.1774466111   -2.3480436818   -0.4463239666
H        3.0683378721    1.8092870842    0.5317531418
H        4.6302349826   -1.8452831665   -1.1043205880
H        6.8809666479   -0.8540408134   -1.1540618443
25   
Iteration 20 Energy -502.60005436
C        0.5915349057    0.8249291728    0.6577538986
C       -0.7344988827    1.0982036413    1.0137493505
C       -1.7333547214    0.1443107911    0.8483231900
C        0.9556702641   -0.4158903500    0.1224246051
C        2.3398898211   -0.8931448043   -0.3223032538
C       -1.3896280535   -1.1019712590    0.3185854874
C        6.2489082159    1.0401005412   -0.3359031339
C        5.1570246786    1.7599371008    0.1377464840
C       -0.0707325951   -1.3683133052   -0.0339794648
C        3.8755149773    1.1970540006    0.1669568826
C        3.6527013162   -0.1098772835   -0.2805023117
C        4.7718691121   -0.8227822431   -0.7539761499
C        6.0461848185   -0.2667814640   -0.7861449703
H        1.3227003976    1.6040183246    0.8165862344
H       -0.9780224130    2.0737625297    1.4268207407
H       -2.7608167343    0.3635509411    1.1257543271
H        2.5286918378   -1.8279347233    0.2245291058
H        2.2220301464   -1.2202207205   -1.3662589228
H       -2.1496949407   -1.8664193861    0.1789144710
H        7.2401694250    1.4848177347   -0.3556747695
H        5.2914568975    2.7780675371    0.4939140780
H        0.1788909929   -2.3445457278   -0.4459418481
H        3.0678916452    1.8082851672    0.5415250423
H        4.6315112610   -1.8430328391   -1.1069676311
H        6.8810816046   -0.8532309019   -1.1610832474
25   
Iteration 21 Energy -502.60007516
C        0.5998394994    0.8211837591    0.6605027026
C       -0.7246859822    1.1016680014    1.0176930569
C       -1.7244580172    0.1494461752    0.8490947498
C        0.9575948851   -0.4205498581    0.1258879818
C        2.3390420166   -0.8971939278   -0.3216218747
C       -1.3879042205   -1.0974513357    0.3151553280
C        6.2403793785    1.0441550628   -0.3329681059
C        5.1464336399    1.7635012166    0.1379020491
C       -0.0707001268   -1.3695102207   -0.0377373059
C        3.8691043923    1.1913985373    0.1624236243
C        3.6521781886   -0.1164542485   -0.2850272361
C        4.7732484654   -0.8267410726   -0.7564603598
C        6.0450716375   -0.2638082992   -0.7839568606
H        1.3334499513    1.5989865101    0.8129500187