48   
Iteration 0 Energy -1141.49011531
O        0.6991000000   -2.2606000000   -0.2425000000
O       -3.4065000000    2.8382000000   -0.3438000000
O       -0.9651000000   -3.3646000000    0.9187000000
N       -1.4047000000    1.6201000000   -0.9940000000
N        1.6652000000    2.1369000000    0.7909000000
C       -1.2090000000   -0.7716000000   -0.2858000000
C       -1.0161000000    0.2513000000   -1.4669000000
C        1.0344000000    0.1355000000   -0.3771000000
C        0.2278000000   -1.0095000000    0.2555000000
C       -2.1626000000   -0.1404000000    0.7738000000
C        0.4830000000    0.2358000000   -1.7858000000
C       -0.7863000000    1.8889000000    0.3488000000
C       -1.4802000000    1.0645000000    1.4524000000
C        0.6643000000    1.4697000000    0.2918000000
C       -2.8978000000    1.6141000000   -0.8711000000
C       -3.3356000000    0.4566000000    0.0163000000
C        2.5062000000    0.1813000000   -0.1885000000
C        2.8096000000    1.3650000000    0.5031000000
C       -4.5921000000    0.0012000000    0.0930000000
C        3.4978000000   -0.6985000000   -0.5794000000
C        4.1182000000    1.6834000000    0.8252000000
C        0.0048000000   -3.3604000000    0.1728000000
C        4.8194000000   -0.3830000000   -0.2570000000
C       -5.0091000000   -1.1567000000    0.9350000000
C        5.1271000000    0.7973000000    0.4405000000
C        0.6083000000   -4.5947000000   -0.4259000000
H       -1.6768000000   -1.6689000000   -0.7069000000
H       -1.5874000000   -0.0277000000   -2.3605000000
H        0.2968000000   -1.0239000000    1.3490000000
H       -2.4414000000   -0.8697000000    1.5377000000
H        0.7509000000   -0.6382000000   -2.3912000000
H        0.8051000000    1.1319000000   -2.3299000000
H       -0.8290000000    2.9585000000    0.5826000000
H       -2.2257000000    1.6799000000    1.9739000000
H       -0.7701000000    0.7314000000    2.2181000000
H       -3.3231000000    1.5003000000   -1.8760000000
H       -5.3713000000    0.4934000000   -0.4831000000
H        3.2665000000   -1.6081000000   -1.1220000000
H       -4.3774000000    2.7939000000   -0.3710000000
H        4.3603000000    2.5962000000    1.3588000000
H        5.6206000000   -1.0564000000   -0.5497000000
H       -5.3496000000   -0.8119000000    1.9157000000
H       -4.2267000000   -1.9086000000    1.0640000000
H       -5.8485000000   -1.6676000000    0.4506000000
H        6.1628000000    1.0233000000    0.6801000000
H        1.6473000000   -4.6935000000   -0.1017000000
H        0.5479000000   -4.5446000000   -1.5159000000
H        0.0518000000   -5.4726000000   -0.0855000000
48   
Iteration 1 Energy -1141.50783197
O        0.7300012776   -2.2652346183   -0.2393250427
O       -3.3209479023    2.8420414358   -0.3240087724
O       -0.7987496896   -3.3610533887    0.9228115255
N       -1.4190673953    1.6033846141   -0.9733748406
N        1.6444106139    2.1066064404    0.7549258428
C       -1.2204373087   -0.7772947256   -0.2635274756
C       -1.0442096471    0.2449900046   -1.4409442915
C        1.0273278664    0.1213710353   -0.3804230930
C        0.2253147954   -1.0230308336    0.2593348731
C       -2.1617401861   -0.1466137977    0.7950632159
C        0.4484764477    0.2203688142   -1.7821338948
C       -0.7845916220    1.8756989541    0.3494229237
C       -1.4708474002    1.0573161417    1.4635554737
C        0.6603648541    1.4531717216    0.2809624641
C       -2.8842502703    1.6015871648   -0.8403154328
C       -3.3412598834    0.4464012687    0.0489106624
C        2.5118123199    0.1614051723   -0.1995853188
C        2.8022048054    1.3452249051    0.4783274106
C       -4.5984327131    0.0242480325    0.1157257550
C        3.5141343322   -0.7060154825   -0.5798529123
C        4.1031786408    1.6798148906    0.7986025575
C        0.1227138224   -3.3925397736    0.1649147782
C        4.8299487528   -0.3790518704   -0.2613913230
C       -5.2007977719   -1.1021428332    0.9062627511
C        5.1143520118    0.8011729933    0.4213594586
C        0.7396192657   -4.6207662506   -0.4368819031
H       -1.6872511780   -1.6683288547   -0.6695315691
H       -1.6303175443   -0.0254856768   -2.3164810408
H        0.3069264579   -1.0363425055    1.3416259969
H       -2.4344701905   -0.8704918164    1.5541050454
H        0.7030048676   -0.6504041064   -2.3859088451
H        0.7617450497    1.1094489389   -2.3253407055
H       -0.8237173464    2.9375223941    0.5697114647
H       -2.2061736749    1.6690680599    1.9847556696
H       -0.7560061744    0.7326583284    2.2183989965
H       -3.3066889548    1.4885975420   -1.8383829121
H       -5.3178807698    0.5674173874   -0.4847489204
H        3.2927841627   -1.6168368463   -1.1122265613
H       -4.2752691361    2.8386325705   -0.3344524673
H        4.3312096911    2.5948697862    1.3216602839
H        5.6347373877   -1.0406928485   -0.5452963804
H       -5.5761248770   -0.7483081652    1.8665457653
H       -4.5110046884   -1.9232309237    1.0750546567
H       -6.0481700411   -1.5188824740    0.3611660704
H        6.1403075913    1.0390603071    0.6589429021
H        1.7855033259   -4.6876059087   -0.1482880110
H        0.6538026414   -4.5841786926   -1.5200755422
H        0.2176253844   -5.5006462863   -0.0725490637
48   
Iteration 2 Energy -1141.50665377
O        0.6935270141   -2.2747770457   -0.2335219303
O       -3.1912802233    2.8970925647   -0.3416253751
O       -0.5385687647   -3.6625705290    1.0583912421
N       -1.4654957193    1.5921793080   -0.9779556421
N        1.5939048338    2.0463298275    0.7016081656
C       -1.3034679121   -0.7725205326   -0.2612935560
C       -1.1208069440    0.2443463441   -1.4315973193
C        0.9672271351    0.0760467126   -0.3884452827
C        0.1378995978   -1.0503989633    0.2503313145
C       -2.2351453614   -0.1234854306    0.7807317722
C        0.3630105015    0.1726433490   -1.7913281566
C       -0.8126990662    1.8622158396    0.3220056229
C       -1.5228767440    1.0693353061    1.4469114492
C        0.6209134763    1.4120218333    0.2557195496
C       -2.8950704445    1.6346993859   -0.8555740612
C       -3.3957061053    0.4827668508    0.0253927599
C        2.4638152359    0.0851593007   -0.1890731435
C        2.7588928938    1.2728030017    0.4664310680
C       -4.6556379061    0.1182499975    0.0607607880
C        3.4698047144   -0.7893768391   -0.5305814252
C        4.0514781400    1.6114514647    0.8011204544
C        0.2511361725   -3.4306048676    0.2259052445
C        4.7750986533   -0.4520167739   -0.1933980676
C       -5.1307860200   -1.0107741931    0.9449644005
C        5.0644758062    0.7272082872    0.4629489323
C        0.9740860196   -4.5219113559   -0.5075599458
H       -1.7683713594   -1.6636307412   -0.6346257634
H       -1.7376526111    0.0036156236   -2.2809048037
H        0.2243878086   -1.0601767641    1.3192211038
H       -2.5373248379   -0.8440633740    1.5213748381
H        0.5878514737   -0.7045305824   -2.3824127193
H        0.6885987668    1.0452376359   -2.3329922316
H       -0.8349414844    2.9171103191    0.5097853631
H       -2.2456669354    1.6915374887    1.9492696858
H       -0.8174928235    0.7515242496    2.2009479101
H       -3.3019973251    1.5343025695   -1.8526837656
H       -5.3933563476    0.6276071038   -0.5448873237
H        3.2565981122   -1.7058441256   -1.0419585206
H       -4.1221047530    2.9906476597   -0.3095389466
H        4.2619625966    2.5332400239    1.3038011365
H        5.5745650115   -1.1181003907   -0.4482412107
H       -5.4744492596   -0.6470488512    1.9074376222
H       -4.3609686618   -1.7475461385    1.1207335363
H       -5.9676408279   -1.5179389749    0.4823718978
H        6.0804855920    0.9627595593    0.7097108952
H        2.0383325553   -4.4229987569   -0.3532244049
H        0.7742465770   -4.4477211283   -1.5666535379
H        0.6403104197   -5.4771957316   -0.1406997675
48   
Iteration 3 Energy -1141.51523998
O        0.7152231156   -2.2631164744   -0.2615183316
O       -3.2194206596    2.8833738151   -0.2963298539
O       -0.5362881902   -3.4923789264    1.0986556568
N       -1.4564511144    1.5955653573   -0.9635419596
N        1.6213155772    2.0722328708    0.7162272208
C       -1.2724642648   -0.7745590191   -0.2693095374
C       -1.0993041286    0.2524885804   -1.4337588833
C        0.9913803232    0.0929693690   -0.3963211012
C        0.1676619757   -1.0436173357    0.2346173439
C       -2.2080100398   -0.1390995335    0.7847610229
C        0.3828453184    0.1935779504   -1.7995143105
C       -0.7989156462    1.8608006238    0.3395120441
C       -1.5022802347    1.0536463783    1.4607534559
C        0.6401356940    1.4226043603    0.2635488485
C       -2.8985271946    1.6318787923   -0.8353156542
C       -3.3774296974    0.4628507693    0.0349376605
C        2.4845410129    0.1114739034   -0.2007036138
C        2.7824528408    1.2992686054    0.4653798227
C       -4.6415847228    0.0823138063    0.0676552144
C        3.4921658678   -0.7595539786   -0.5548283319
C        4.0771666298    1.6387514267    0.7957647386
C        0.2636618986   -3.4138216429    0.2238894450
C        4.8022049879   -0.4258432999   -0.2241791675
C       -5.2216988860   -1.0377213529    0.8968231757
C        5.0897030730    0.7550354556    0.4425596790
C        0.9150484359   -4.5862818538   -0.4625906849
H       -1.7299595980   -1.6767667572   -0.6441450370
H       -1.7226884085    0.0145389771   -2.2839623475
H        0.2558222825   -1.0619750961    1.3080754811
H       -2.5047526913   -0.8718660494    1.5201719418
H        0.6118528915   -0.6810482420   -2.3972528033
H        0.7033169086    1.0747820534   -2.3374906348
H       -0.8288126993    2.9179118428    0.5361856725
H       -2.2310649865    1.6688730434    1.9704354286
H       -0.7908034162    0.7341513652    2.2122806650
H       -3.3117850839    1.5395010902   -1.8345341680
H       -5.3520440169    0.6164138440   -0.5491276301
H        3.2764683683   -1.6745279944   -1.0729663882
H       -4.1602594560    2.9672214797   -0.2495434329
H        4.2893734526    2.5592509961    1.3058455159
H        5.6029508444   -1.0911744626   -0.4901394187
H       -5.5982705161   -0.6733432139    1.8484976086
H       -4.4987256555   -1.8165207394    1.0988425440
H       -6.0583843259   -1.4938327029    0.3788083400
H        6.1092127814    0.9919500327    0.6863178646
H        1.9889108236   -4.5360544290   -0.3347485841
H        0.7003446197   -4.5586963409   -1.5236552768
H        0.5392663864   -5.5047279788   -0.0379696364
48   
Iteration 4 Energy -1141.51672084
O        0.6573193680   -2.2591350603   -0.3173068352
O       -3.1988705815    2.8960847489   -0.1691039631
O       -0.4754493133   -3.4353975411    1.1946738149
N       -1.4501537666    1.6178407577   -0.9364804601
N        1.6349256401    2.0708740667    0.7097550369
C       -1.2793678610   -0.7608046737   -0.2848206537
C       -1.1073728236    0.2797007408   -1.4380312826
C        0.9879165963    0.1020171128   -0.4115796423
C        0.1572048228   -1.0359624100    0.2119299211
C       -2.2126642180   -0.1354411263    0.7796260050
C        0.3711380328    0.2126473473   -1.8146670080
C       -0.7887364055    1.8636221457    0.3678939777
C       -1.4981058634    1.0408295811    1.4773558779
C        0.6458490739    1.4226379628    0.2696025161
C       -2.8950605938    1.6805028462   -0.7903527245
C       -3.3751330584    0.4727342398    0.0226859752
C        2.4802471646    0.1038813707   -0.2284578088
C        2.7851633213    1.2897808361    0.4374262806
C       -4.6323343897    0.0668238170    0.0053523733
C        3.4808450743   -0.7717081733   -0.5921892232
C        4.0847259770    1.6193777444    0.7563367462
C        0.2949095292   -3.3822021102    0.2911934399
C        4.7985575689   -0.4526139169   -0.2753360802
C       -5.2696447534   -1.0720469964    0.7608713022
C        5.0882069724    0.7285420317    0.3916132710
C        0.9602552385   -4.5746144407   -0.3368273202
H       -1.7220448361   -1.6792942295   -0.6474794889
H       -1.7509419125    0.0639910876   -2.2816777954
H        0.2392680360   -1.0809330730    1.2867232920
H       -2.5249502097   -0.8830968016    1.4953956713
H        0.5890554064   -0.6693855705   -2.4066457279
H        0.6979704377    1.0906813831   -2.3571397959
H       -0.8137836476    2.9189459727    0.5828737445
H       -2.2251162229    1.6569152033    1.9912061417
H       -0.7907174823    0.7029016153    2.2262802931
H       -3.3312630416    1.6559060305   -1.7849005791
H       -5.3159284850    0.6192588236   -0.6247837984
H        3.2542404283   -1.6852327708   -1.1100913388
H       -4.1189716439    2.9103906124    0.0558998412
H        4.3062226151    2.5377768174    1.2681505977
H        5.5942817105   -1.1225381834   -0.5497555130
H       -5.7301561275   -0.7223661572    1.6817126017
H       -4.5554626390   -1.8439171286    1.0193018060
H       -6.0531331244   -1.5311224834    0.1663529820
H        6.1112588802    0.9612992680    0.6288485901
H        2.0366130020   -4.4695753164   -0.2656179357
H        0.7002419344   -4.6274177854   -1.3878625713
H        0.6420468250   -5.4742593674    0.1691463373
48   
Iteration 5 Energy -1141.51637175
O        0.6190767211   -2.2586479731   -0.3547984044
O       -3.2059640748    2.9156130457   -0.1826883017
O       -0.4322415346   -3.3689346309    1.2189262760
N       -1.4503497922    1.6287698831   -0.9287745015
N        1.6334183229    2.0547024914    0.7246944877
C       -1.2978945951   -0.7507282146   -0.2951876146
C       -1.1189953357    0.2939352663   -1.4434511414
C        0.9762464027    0.1041490685   -0.4154898028
C        0.1395327331   -1.0352356144    0.1966039355
C       -2.2317434086   -0.1260383568    0.7733909256
C        0.3581731989    0.2218409971   -1.8199476673
C       -0.7913865767    1.8614314408    0.3809135857
C       -1.5047009704    1.0316865597    1.4847182805
C        0.6406172173    1.4169614732    0.2768081552
C       -2.8973255066    1.7005156159   -0.7975696695
C       -3.3856168185    0.4953835191    0.0122154354
C        2.4672990462    0.1032353269   -0.2343982659
C        2.7861421424    1.2800226233    0.4419114987
C       -4.6390141620    0.0817830949   -0.0365739710
C        3.4621821761   -0.7731471632   -0.6090723945
C        4.0872547156    1.6037558801    0.7626776193
C        0.2986205445   -3.3772402231    0.2834412046
C        4.7769488573   -0.4487599199   -0.2843454972
C       -5.2181309125   -1.0710553309    0.7410012543
C        5.0936655844    0.7194196969    0.3922896156
C        0.9694548017   -4.5885317448   -0.3018424937
H       -1.7328770952   -1.6755961635   -0.6530466932
H       -1.7702005919    0.0943819811   -2.2855850366
H        0.2195249736   -1.0991376145    1.2699111262
H       -2.5586125661   -0.8790436411    1.4775781144
H        0.5714274022   -0.6642868249   -2.4069648454
H        0.6913654425    1.0974282245   -2.3624266040
H       -0.8117744894    2.9140798531    0.6071438923
H       -2.2226254902    1.6508337621    2.0069219166
H       -0.7991900720    0.6751270708    2.2267435477
H       -3.3270617048    1.6808992715   -1.7952680374
H       -5.3293572188    0.6102022125   -0.6808343299
H        3.2358868066   -1.6822112707   -1.1358100109
H       -4.0842478484    2.8682895533    0.1683297169
H        4.3082961107    2.5172369840    1.2834048606
H        5.5674624708   -1.1207526179   -0.5674569294
H       -5.7435113695   -0.7174209210    1.6251441612
H       -4.4599627175   -1.7730977803    1.0668182034
H       -5.9374427611   -1.6126054736    0.1354612817
H        6.1194550285    0.9427916562    0.6283610062
H        2.0459045226   -4.4630332709   -0.2677956491
H        0.6847623408   -4.6938679548   -1.3427134161
H        0.6806099163   -5.4682065251    0.2537322568
48   
Iteration 6 Energy -1141.51719732
O        0.6260065653   -2.2607324194   -0.3410944383
O       -3.2040333407    2.9154064995   -0.1861553046
O       -0.4121666699   -3.4263746586    1.2338565826
N       -1.4507535810    1.6243317600   -0.9271219460
N        1.6361279376    2.0566726494    0.7203328569
C       -1.2980946192   -0.7526374283   -0.2842199378
C       -1.1207057298    0.2871634227   -1.4365975008
C        0.9765273712    0.1008799509   -0.4115872940
C        0.1420005680   -1.0357181525    0.2062421259
C       -2.2306899787   -0.1234153269    0.7828864237
C        0.3559085696    0.2132295793   -1.8150933226
C       -0.7900045364    1.8616469495    0.3801138895
C       -1.5022928438    1.0366739824    1.4879980391
C        0.6423072332    1.4167641139    0.2760030377
C       -2.8968717382    1.6958855644   -0.7948596457
C       -3.3863802463    0.4948649587    0.0204430950
C        2.4680561273    0.1008134392   -0.2332388351
C        2.7878621658    1.2803680321    0.4383692243
C       -4.6422299403    0.0837538071   -0.0274251945
C        3.4623193082   -0.7773741296   -0.6066606507
C        4.0894885149    1.6048304937    0.7554781785
C        0.3139231067   -3.3864777344    0.2933331772
C        4.7800425984   -0.4589233587   -0.2889851147
C       -5.2645964151   -1.0576759611    0.7345758756
C        5.0896741794    0.7138942168    0.3830963247
C        1.0030273514   -4.5754935399   -0.3168577899
H       -1.7339939997   -1.6776593499   -0.6385627904
H       -1.7723413347    0.0846004743   -2.2771441338
H        0.2250291023   -1.0951040122    1.2788294964
H       -2.5557254427   -0.8726201910    1.4910224723
H        0.5682425156   -0.6749128290   -2.3992825857
H        0.6879621140    1.0865753138   -2.3612140545
H       -0.8099728330    2.9148986724    0.6020046760
H       -2.2189784137    1.6580231084    2.0091965717
H       -0.7959361234    0.6829459886    2.2301951503
H       -3.3259738207    1.6718209348   -1.7925861680
H       -5.3191555264    0.6215254749   -0.6777548280
H        3.2322689662   -1.6874763577   -1.1295932856
H       -4.0822697346    2.8702692844    0.1653615977
H        4.3145737973    2.5195220498    1.2723720783
H        5.5701338107   -1.1320477881   -0.5710377230
H       -5.7990519867   -0.6947660537    1.6094061936
H       -4.5314068207   -1.7792679871    1.0720064279
H       -5.9850737120   -1.5797088543    0.1132884887
H        6.1155558484    0.9379657328    0.6164227416
H        2.0771198247   -4.4325583148   -0.2839027128
H        0.7164965193   -4.6678093667   -1.3584189911
H        0.7311450901   -5.4696754239    0.2236603872
48   
Iteration 7 Energy -1141.51734128
O        0.6557612486   -2.2563605155   -0.3148216114
O       -3.2119071748    2.9061252493   -0.2158458712
O       -0.4483515954   -3.4272193209    1.2083406431
N       -1.4488122380    1.6155474189   -0.9348458648
N        1.6333286480    2.0703086507    0.7167725490
C       -1.2865623515   -0.7574189361   -0.2742279433
C       -1.1107902881    0.2756778828   -1.4325791164
C        0.9858619045    0.1030223506   -0.4050561229
C        0.1556111029   -1.0319930363    0.2195255882
C       -2.2216926494   -0.1239568456    0.7878649699
C        0.3661918381    0.2056109311   -1.8092063876
C       -0.7898660287    1.8643510607    0.3692466734
C       -1.4997935840    1.0457338189    1.4824113664
C        0.6450363611    1.4240117650    0.2729483430
C       -2.8944204035    1.6779156964   -0.8038517617
C       -3.3807874846    0.4840509616    0.0240212644
C        2.4782604309    0.1056526227   -0.2280098438
C        2.7835343949    1.2901586552    0.4406441076
C       -4.6372947447    0.0750432566   -0.0128594746
C        3.4786764803   -0.7682960965   -0.5959323483
C        4.0832380326    1.6188857711    0.7586951253
C        0.3066013158   -3.3852393577    0.2918744429
C        4.7967264604   -0.4498070323   -0.2795512579
C       -5.2554086853   -1.0613150087    0.7594861116
C        5.0864017049    0.7293072811    0.3900347412
C        0.9509106570   -4.5808840674   -0.3542758690
H       -1.7227613330   -1.6810864210   -0.6295449002
H       -1.7554381621    0.0632541195   -2.2752081968
H        0.2415847041   -1.0827764359    1.2920742665
H       -2.5394426914   -0.8671683514    1.5052529996
H        0.5839519965   -0.6825537445   -2.3910494471
H        0.6938286393    1.0785253238   -2.3577078435
H       -0.8162126639    2.9191579606    0.5812876170
H       -2.2174141466    1.6673255176    2.0021644546
H       -0.7913980285    0.7009450176    2.2262617557
H       -3.3153989540    1.6352302913   -1.8038708726
H       -5.3187959600    0.6112614675   -0.6594944925
H        3.2522625601   -1.6798313302   -1.1172782326
H       -4.0888902481    2.8611840457    0.1378741973
H        4.3048724597    2.5359752133    1.2721691930
H        5.5920073661   -1.1185707996   -0.5568573969
H       -5.8068642019   -0.6911983156    1.6203467519
H       -4.5189450817   -1.7692496986    1.1169841128
H       -5.9617937928   -1.6010706325    0.1372030282
H        6.1093735155    0.9618196020    0.6262938573
H        2.0289321330   -4.4888281408   -0.2947538003
H        0.6813062613   -4.6240780613   -1.4034580145
H        0.6278821110   -5.4802824890    0.1476117264
48   
Iteration 8 Energy -1141.51752376
O        0.6731346866   -2.2566231643   -0.3011798387
O       -3.2179723373    2.8956331892   -0.2367372097
O       -0.4906341705   -3.4354144277    1.1750616403
N       -1.4467786770    1.6060116232   -0.9398886326
N        1.6367467897    2.0735571194    0.7110101858
C       -1.2777325377   -0.7636921009   -0.2684119682
C       -1.1042795293    0.2648173803   -1.4311947554
C        0.9925518373    0.1021314214   -0.4036882937
C        0.1656260244   -1.0323250913    0.2261718025
C       -2.2125829829   -0.1276673969    0.7922645274
C        0.3725124996    0.1982813872   -1.8079990843
C       -0.7867860915    1.8624856417    0.3613104081
C       -1.4929062897    1.0474349911    1.4790167324
C        0.6494902778    1.4248999961    0.2681657854
C       -2.8926288281    1.6617676754   -0.8087469051
C       -3.3755128567    0.4742822513    0.0305261292
C        2.4848689188    0.1119147428   -0.2255671313
C        2.7916125222    1.2975533123    0.4409245730
C       -4.6337592470    0.0702196347    0.0057694947
C        3.4864711588   -0.7606368817   -0.5916632309
C        4.0905738399    1.6311199569    0.7590054652
C        0.2776715931   -3.3874226823    0.2707788576
C        4.8006434721   -0.4294516874   -0.2715212879
C       -5.2747049253   -1.0553881049    0.7744205195
C        5.1009788633    0.7482786999    0.3955051381
C        0.9246466426   -4.5816359635   -0.3750879406
H       -1.7144924233   -1.6871335177   -0.6228898621
H       -1.7459708611    0.0462598642   -2.2743073367
H        0.2541960715   -1.0769290374    1.2989028007
H       -2.5230975157   -0.8673612745    1.5162569527
H        0.5942018596   -0.6896871934   -2.3884886625
H        0.6962818931    1.0715922316   -2.3579367174
H       -0.8167946188    2.9183820544    0.5673779792
H       -2.2094562450    1.6692259841    2.0003119774
H       -0.7817013739    0.7071099711    2.2221366389
H       -3.3094723398    1.6049178014   -1.8095419682
H       -5.3112001947    0.6129400393   -0.6394547403
H        3.2650926218   -1.6742695096   -1.1115909648
H       -4.0784070578    2.8377147983    0.1534029298
H        4.3074581124    2.5505363616    1.2700479962
H        5.5964736929   -1.0973543418   -0.5478871557
H       -5.8713561478   -0.6720063486    1.5985154803
H       -4.5489719237   -1.7466047257    1.1821477695
H       -5.9456763941   -1.6173133405    0.1325333833
H        6.1241058190    0.9822477447    0.6304849137
H        2.0016102450   -4.5092535025   -0.2792831820
H        0.6876274856   -4.6023762259   -1.4325181397
H        0.5713984402   -5.4838711413    0.1006391308
48   
Iteration 9 Energy -1141.51759106
O        0.6638452691   -2.2577636059   -0.3151353594
O       -3.2239391331    2.9002220857   -0.2369372801
O       -0.4569608327   -3.4345331702    1.1943611950
N       -1.4487471747    1.6116536365   -0.9397290914
N        1.6357567480    2.0672932847    0.7158473685
C       -1.2838184324   -0.7610948197   -0.2791925814
C       -1.1080396522    0.2721997515   -1.4376187684
C        0.9868325655    0.1028891666   -0.4076024507
C        0.1581021888   -1.0339709959    0.2165469000
C       -2.2183146387   -0.1292436904    0.7840281663
C        0.3693983094    0.2059504955   -1.8124466685
C       -0.7897303873    1.8615391033    0.3640686425
C       -1.4960407448    1.0405251186    1.4775273981
C        0.6458813840    1.4226097637    0.2696324149
C       -2.8961003623    1.6685629626   -0.8114187254
C       -3.3800163588    0.4802748658    0.0260114414
C        2.4782406039    0.1122251529   -0.2253973398
C        2.7927540175    1.2947240553    0.4440890807
C       -4.6408850627    0.0826805028    0.0038463256
C        3.4767811603   -0.7630550371   -0.5934886567
C        4.0919632306    1.6266974325    0.7636034201
C        0.2868881708   -3.3899643907    0.2686013014
C        4.7951389818   -0.4454580436   -0.2779387152
C       -5.2753237607   -1.0441070533    0.7740465199
C        5.0894643923    0.7326249835    0.3916289524
C        0.9531128695   -4.5821805270   -0.3615882388
H       -1.7228686826   -1.6822793667   -0.6371355381
H       -1.7502854832    0.0581767139   -2.2821520277
H        0.2455171360   -1.0811110076    1.2898310153
H       -2.5298347750   -0.8733844301    1.5032511852
H        0.5910951518   -0.6797983121   -2.3966762303
H        0.6950829058    1.0816992162   -2.3581672400
H       -0.8180760175    2.9167180232    0.5764083375
H       -2.2120049614    1.6601683544    2.0028254357
H       -0.7855565227    0.6943922120    2.2192497467
H       -3.3132108145    1.6149628931   -1.8125031077
H       -5.3204276595    0.6263850186   -0.6389414071
H        3.2486807585   -1.6745519659   -1.1144448834
H       -4.0635140063    2.8245416413    0.1943287522
H        4.3159380864    2.5434777035    1.2773115400
H        5.5886438162   -1.1160402506   -0.5563006446
H       -5.9235518891   -0.6590180554    1.5576102360
H       -4.5463163450   -1.6977078601    1.2347397343
H       -5.8957944399   -1.6468584757    0.1177601388
H        6.1138742839    0.9613508515    0.6260654598
H        2.0297056519   -4.4880479799   -0.2761489653
H        0.7076729985   -4.6234042961   -1.4164523009
H        0.6220878990   -5.4840733962    0.1313009016
48   
Iteration 10 Energy -1141.51778738
O        0.6552352221   -2.2599717383   -0.3239714783
O       -3.2232041640    2.9039041335   -0.2280779285
O       -0.4445887069   -3.4403166138    1.2007534668
N       -1.4496063504    1.6147974410   -0.9379062501
N        1.6351554747    2.0654822184    0.7155245329
C       -1.2872126888   -0.7593162269   -0.2837684915
C       -1.1111953110    0.2764576139   -1.4397951815
C        0.9839458137    0.1017713550   -0.4105786385
C        0.1536258188   -1.0358185288    0.2110999047
C       -2.2208613613   -0.1295748025    0.7810732025
C        0.3664462524    0.2084728065   -1.8149924900
C       -0.7903340852    1.8613197048    0.3667659091
C       -1.4969510905    1.0376836285    1.4784514901
C        0.6445303295    1.4211878112    0.2699520973
C       -2.8972262943    1.6748506499   -0.8086316456
C       -3.3823440241    0.4840388138    0.0250352461
C        2.4753996401    0.1063243952   -0.2287635480
C        2.7886803820    1.2895792535    0.4398023938
C       -4.6451908880    0.0904910169    0.0027335554
C        3.4729816667   -0.7704308534   -0.5965851528
C        4.0887551806    1.6189256973    0.7579129570
C        0.3050905788   -3.3921282320    0.2786391631
C        4.7899847755   -0.4487161623   -0.2788608389
C       -5.2801419112   -1.0369666399    0.7704652351
C        5.0910598925    0.7284562986    0.3896747374
C        0.9733867587   -4.5826793559   -0.3532371620
H       -1.7276610996   -1.6801154333   -0.6414668560
H       -1.7562492259    0.0653913026   -2.2832639092
H        0.2401271688   -1.0849347641    1.2844203098
H       -2.5338352091   -0.8768651621    1.4962685611
H        0.5859209192   -0.6769880985   -2.4007145754
H        0.6938734908    1.0844256142   -2.3597412653
H       -0.8168192227    2.9160310351    0.5823609227
H       -2.2140006976    1.6561562578    2.0038314715
H       -0.7875521855    0.6898678291    2.2206665594
H       -3.3170957880    1.6275249683   -1.8089323040
H       -5.3240799063    0.6345553566   -0.6408409372
H        3.2459783145   -1.6831252586   -1.1162220081
H       -4.0532447758    2.8217466481    0.2204271784
H        4.3114020937    2.5360749823    1.2715166671
H        5.5830446662   -1.1201585915   -0.5566119780
H       -5.9694823514   -0.6523134642    1.5183551677
H       -4.5546806207   -1.6616293545    1.2744418695
H       -5.8581652422   -1.6689679738    0.1023897661
H        6.1156359890    0.9571604293    0.6243238164
H        2.0496690568   -4.4833568367   -0.2691101095
H        0.7274016667   -4.6251712403   -1.4080555457
H        0.6474932058   -5.4862325261    0.1403480432
48   
Iteration 11 Energy -1141.51786367
O        0.6597645211   -2.2586552388   -0.3223236320
O       -3.2241296486    2.8997625785   -0.2283700627
O       -0.4805572620   -3.4330077140    1.1740858183
N       -1.4489047226    1.6111436177   -0.9375166476
N        1.6357155283    2.0692943266    0.7111714832
C       -1.2816282063   -0.7614413840   -0.2804448511
C       -1.1078886165    0.2732960504   -1.4373853940
C        0.9886890811    0.1020297976   -0.4108533545
C        0.1593454745   -1.0353649541    0.2126944311
C       -2.2147397155   -0.1313293758    0.7847227172
C        0.3694182171    0.2062674371   -1.8145530671
C       -0.7883166169    1.8613781352    0.3645981875
C       -1.4937620052    1.0402189032    1.4788210673
C        0.6471582642    1.4226608451    0.2677488819
C       -2.8953370527    1.6694143291   -0.8049772436
C       -3.3788229008    0.4779445278    0.0297930299
C        2.4809544370    0.1068213450   -0.2312588880
C        2.7880348916    1.2912440767    0.4370160244