18   
Iteration 0 Energy -449.79676933
O        0.8556237138   -1.3818976259    0.3173538155
H        1.6746796629   -1.8471219649    0.4856375088
H        1.1172361800   -0.4682733188    0.2056811804
O       -1.0982625284   -0.8580828910    2.1724631078
H       -0.4029651704   -1.1456966573    1.5813109035
H       -1.0847470506    0.0967976121    2.1121133005
O        1.8638563656    1.2197718722    1.3326640992
H        2.0097975347    1.8822901978    0.6578398910
H        2.6411662827    0.6630381517    1.2943569165
O        0.4358641627    0.8588226435   -1.7984082642
H        1.2948367559    0.5941611975   -1.4701680912
H        0.1355146577    0.1111827990   -2.3145955512
O       -0.8006621036   -2.0904305554   -1.5724738604
H       -0.2202463070   -1.8291579755   -0.8579929211
H       -0.3279502699   -1.8451926104   -2.3674678605
O       -1.4962593612    2.2671514257   -0.3294297749
H       -0.8465067643    1.6935133613   -0.7348841125
H       -2.3244822432    1.7978584481   -0.4265572767
18   
Iteration 1 Energy -449.82043843
O        0.8854356824   -1.3068065351    0.3826760229
H        1.7008009827   -1.8560067948    0.4977720874
H        1.2211002065   -0.3782236101    0.4095960855
O       -1.1537953861   -0.8693882067    2.2380884966
H       -0.4429579746   -1.1588620592    1.6109585498
H       -1.0707466341    0.1118057188    2.1179739714
O        1.8438781403    1.1328126020    1.2963228605
H        1.9883032605    1.8640280467    0.6390976600
H        2.7476255387    0.7212171356    1.2781145475
O        0.4195526392    0.9273147283   -1.7916946604
H        1.3305626123    0.6074733288   -1.5674807635
H        0.0930867443    0.1472270492   -2.3074852049
O       -0.8952350773   -2.1574541796   -1.6671401828
H       -0.3062570660   -1.9294244387   -0.8990761365
H       -0.3026186690   -1.9073858701   -2.4230491555
O       -1.4826473894    2.2970248683   -0.3098851478
H       -0.8402610601    1.7150427078   -0.7942134005
H       -2.3081865504    1.7582455087   -0.4237056300
18   
Iteration 2 Energy -449.82854187
O        0.8495147505   -1.2716542964    0.3614265390
H        1.6682798054   -1.8221430813    0.4681304166
H        1.1937219725   -0.3686269354    0.5977188684
O       -1.1663551974   -0.8677793978    2.2636861234
H       -0.4632432872   -1.1916334776    1.6357174986
H       -1.0770762674    0.1171092527    2.1342336373
O        1.8973924684    1.0184400663    1.2031190206
H        1.9262892385    1.8166827398    0.6055382514
H        2.8694380540    0.8148081083    1.2874262491
O        0.4277466169    0.9380387750   -1.8247666171
H        1.3496798336    0.6102806003   -1.6433461946
H        0.0482388887    0.1708436852   -2.3289124815
O       -0.8951004577   -2.1654521453   -1.6648060012
H       -0.3127579201   -1.9180174119   -0.8919285151
H       -0.2708878324   -1.9880484437   -2.4237083648
O       -1.5006225292    2.3052835965   -0.2816882866
H       -0.8153445092    1.7930467990   -0.7932878195
H       -2.3012736279    1.7274615664   -0.4176823243
18   
Iteration 3 Energy -449.83114423
O        0.8350715934   -1.2015306270    0.3357344371
H        1.5882209990   -1.8214044588    0.4901655314
H        1.1918065747   -0.3428869627    0.7023833016
O       -1.1795457486   -0.8849132576    2.2933620587
H       -0.5090039122   -1.2176999197    1.6432999442
H       -1.0805745945    0.0912423978    2.1513463624
O        1.9935857353    0.8946261828    1.1113047364
H        1.8363451766    1.7098433379    0.5757492106
H        2.9607053054    0.9605606634    1.2997654845
O        0.4139779984    0.9691216347   -1.8509796178
H        1.3207860381    0.5956455372   -1.7245324302
H       -0.0149598423    0.2190866062   -2.3281091027
O       -0.8736374569   -2.1470526381   -1.6508350391
H       -0.3076297323   -1.8469582887   -0.8921214557
H       -0.2161501836   -2.1069104492   -2.3936940123
O       -1.4840014894    2.3010944798   -0.2557183183
H       -0.7952078800    1.8506489346   -0.8070313235
H       -2.2521485811    1.6961268274   -0.4132197681
18   
Iteration 4 Energy -449.83339824
O        0.7859071516   -1.2657636196    0.2978604238
H        1.4887098416   -1.9074092314    0.5327666676
H        1.1926357031   -0.4185635445    0.6253379736
O       -1.1715268997   -0.9087854814    2.2941235412
H       -0.5295568460   -1.2223938753    1.6149578633
H       -1.0936209353    0.0653852137    2.1682786687
O        2.0602424948    0.9520300970    1.1125414239
H        1.8179508348    1.7457543575    0.5967767755
H        3.0062310564    1.0788453809    1.3281432961
O        0.3950640117    0.9802823083   -1.8730579852
H        1.2869948269    0.5831124410   -1.7557743727
H       -0.0717892730    0.2451906357   -2.3269945802
O       -0.8400201760   -2.1067542365   -1.6305861575
H       -0.2848924473   -1.7670566578   -0.8884690872
H       -0.1702901904   -2.1819083829   -2.3504188781
O       -1.4573722950    2.2886236217   -0.2404522258
H       -0.7710571538    1.8747551853   -0.8126059207
H       -2.2159697041    1.6832957887   -0.4055574269
18   
Iteration 5 Energy -449.83594476
O        0.8122937038   -1.2499035662    0.3409993311
H        1.4449523512   -1.9515181250    0.6025474286
H        1.3055956910   -0.4298609533    0.5843186300
O       -1.1625562883   -0.9252172278    2.2862875395
H       -0.5406086955   -1.2207168174    1.5805343998
H       -1.1119949549    0.0544897264    2.1854219843
O        2.0217905826    0.9689969803    1.0990250367
H        1.8194078754    1.8007644382    0.6247709217
H        2.9737885040    1.0728741785    1.3135438662
O        0.3715067640    0.9696556322   -1.8939729945
H        1.2656576318    0.5806782125   -1.7561935048
H       -0.1123573445    0.2345429388   -2.3333939392
O       -0.8374722403   -2.0739565337   -1.6644888262
H       -0.3021622764   -1.7410398935   -0.9050618222
H       -0.1388405952   -2.2112405798   -2.3458099957
O       -1.4341450610    2.2786850771   -0.2285818858
H       -0.7449820670    1.8773171828   -0.8078839983
H       -2.2022335805    1.6840893302   -0.3951921718
18   
Iteration 6 Energy -449.83884938
O        0.8170741235   -1.2613409149    0.3740842765
H        1.3954909660   -1.9906305853    0.6902053870
H        1.3368015393   -0.4462861572    0.5796293473
O       -1.1449614973   -0.9597854203    2.2767718099
H       -0.5352873757   -1.1743426184    1.5290474341
H       -1.1499989346    0.0266262898    2.2172955273
O        2.0288139179    0.9589580621    1.0529129750
H        1.7833544771    1.8239049847    0.6497294268
H        2.9717743305    1.1153055127    1.2958882364
O        0.3157035397    0.9692071298   -1.9341210132
H        1.2054440807    0.5682470419   -1.7869492647
H       -0.1791835076    0.2148104559   -2.3321572681
O       -0.8040252348   -1.9910497266   -1.7030278043
H       -0.2782609726   -1.6864771986   -0.9217943467
H       -0.0815637850   -2.2742961136   -2.3148626473
O       -1.3819091662    2.2685793600   -0.1993224456
H       -0.7129492713    1.8730720558   -0.8102943323
H       -2.1586772294    1.6841378429   -0.3761652990
18   
Iteration 7 Energy -449.84203273
O        0.8395954915   -1.3059518458    0.4689471833
H        1.1321974766   -2.0621535783    1.0346033603
H        1.4990692128   -0.5749369347    0.5919358584
O       -1.0744105452   -1.0796438132    2.2361437436
H       -0.5662489304   -0.9979858191    1.3821110175
H       -1.3160312241   -0.1229776625    2.3623503435
O        2.1315028246    0.9749334147    0.8093286094
H        1.5825398314    1.8089174363    0.7303953867
H        2.9412617751    1.3446326379    1.2600565232
O        0.0316921617    0.9112275526   -2.1526526509
H        0.9143532336    0.5019262089   -1.9533380845
H       -0.5110800856    0.0891623472   -2.2886824803
O       -0.4354934611   -1.6007523124   -1.9221675561
H       -0.0623876180   -1.4406058494   -1.0104913466
H       -0.0295790141   -2.4888868513   -2.1150264946
O       -1.1198816122    2.2018347342   -0.0628386415
H       -0.5740855415    1.8634378119   -0.8264126231
H       -1.9553739747    1.6964625251   -0.2573921495
18   
Iteration 8 Energy -449.84746905
O        0.8379424615   -1.2777773222    0.3958117976
H        1.3112247685   -2.0126907439    0.8529452087
H        1.3910366889   -0.4768004223    0.5878147575
O       -1.1391076842   -1.0145526184    2.2816754797
H       -0.5472952235   -1.0856363500    1.4877704146
H       -1.2749537862   -0.0329311106    2.3006821832
O        2.0766855087    0.9307713112    0.9026924478
H        1.6495593526    1.8055440500    0.7070794666
H        2.9584875016    1.2218990144    1.2499321211
O        0.1413560996    0.9709453972   -2.0651452755
H        1.0350298187    0.5867918076   -1.8829136878
H       -0.3289468720    0.1396920686   -2.3274332931
O       -0.6250826858   -1.7533881243   -1.7789738238
H       -0.1393948811   -1.6326548452   -0.9207828413
H       -0.0334356563   -2.4059130981   -2.2337862043
O       -1.2000247649    2.2196162395   -0.1331410441
H       -0.6443669556    1.8212507720   -0.8549140756
H       -2.0410736904    1.7144739759   -0.2824436321
18   
Iteration 9 Energy -449.85305290
O        0.8514226440   -1.3063642355    0.4217146817
H        1.3396674033   -2.0027930171    0.9195183785
H        1.3725331652   -0.4748744236    0.5725132931
O       -1.1571792148   -1.0193911495    2.2955596910
H       -0.5610124249   -1.0664227667    1.5049136232
H       -1.3261365414   -0.0443366753    2.3174148778
O        2.0904518907    0.9315916252    0.8378872145
H        1.5889423690    1.7796314115    0.7322916554
H        2.9423397312    1.2483209346    1.2291758096
O        0.0626387924    0.9290693207   -2.1412236235
H        0.9868506168    0.6455836082   -1.9332269510
H       -0.3442030615    0.0384554078   -2.2972905818
O       -0.5365904860   -1.6424386814   -1.8035062967
H       -0.0746672515   -1.6189753203   -0.9244911608
H       -0.0648956864   -2.3961441866   -2.2387016238
O       -1.1114343668    2.1880015446   -0.1098208916
H       -0.6370331539    1.7817530191   -0.8840527173
H       -1.9940544253    1.7479735854   -0.2118053795
18   
Iteration 10 Energy -449.77581044
O        0.8510471764   -1.3819109669    0.5462002079
H        1.4353279637   -1.9371014779    1.1035088929
H        1.3038784244   -0.4959657621    0.5674827320
O       -1.2272109045   -1.0150094593    2.3444344153
H       -0.5735772354   -1.0570837257    1.6066595933
H       -1.4873461216   -0.0649705489    2.3115272085
O        2.0559990874    0.9904110128    0.5932523585
H        1.3584237814    1.6506218449    0.7784029406
H        2.8174936488    1.2795032579    1.1386502493
O       -0.2131011686    0.6523764498   -2.3341381540
H        0.7361875238    0.9038643861   -2.2752621004
H       -0.1712776263   -0.2627281307   -1.9323856856
O       -0.2005604825   -1.3101316977   -1.8427073686
H        0.1098456164   -1.5521764766   -0.9283562166
H       -0.2044439518   -2.1641126002   -2.3286708606
O       -0.7499531776    1.9965926703   -0.1129078078
H       -0.7057513396    1.6163081036   -1.0328193975
H       -1.7073412152    1.8701531227    0.0839989913
18   
Iteration 11 Energy -449.84686172
O        0.8414799023   -1.3465252315    0.4899908702
H        1.4111890312   -1.9636469937    0.9964640921
H        1.3152638052   -0.4763316809    0.5726237506
O       -1.1958417251   -1.0074267354    2.3206676114
H       -0.5584848755   -1.0825426131    1.5701426203
H       -1.3943448678   -0.0413765454    2.2957989334
O        2.0625289323    0.9475316233    0.7214366924
H        1.4767539357    1.7326690797    0.7626107109
H        2.8817986879    1.2429784663    1.1748206211
O       -0.0686540643    0.7793711909   -2.2411729882
H        0.9032476476    0.8169021764   -2.0859845785
H       -0.2400095301   -0.1903589232   -2.0908494094
O       -0.4035533098   -1.4521359805   -1.8227736354
H        0.0206064703   -1.5750350254   -0.9321722567
H       -0.1364946185   -2.2676146933   -2.3057027149
O       -0.9349915618    2.0996138119   -0.1080826106
H       -0.6716493495    1.6780326158   -0.9692125247
H       -1.8812045104    1.8245354598   -0.0617351853
18   
Iteration 12 Energy -449.85847198
O        0.8219158785   -1.3409032018    0.4816667428
H        1.3807162434   -1.9758918989    0.9767674897
H        1.3121004919   -0.4804415526    0.5753922221
O       -1.1888923335   -1.0080334915    2.3175457125
H       -0.5529359017   -1.1010258966    1.5674705760
H       -1.3775119379   -0.0401643344    2.2833538949
O        2.0698676680    0.9506058371    0.7336524789
H        1.4803702789    1.7319763482    0.7444247818
H        2.8827538032    1.2552727796    1.1895880671
O       -0.0091553159    0.9188211611   -2.2515178877
H        0.9562629065    0.8411825627   -2.0809847754
H       -0.3086081520   -0.0290336750   -2.1724244705
O       -0.4350120654   -1.5882108160   -1.7725489518
H        0.0089099220   -1.6469266854   -0.8874976341
H       -0.1173003881   -2.3722014397   -2.2696078657
O       -0.9507138048    2.1033592141   -0.1075400940
H       -0.6518619897    1.6859807761   -0.9588618724
H       -1.8932653038    1.8142743143   -0.0820084153
18   
Iteration 13 Energy -449.85968571
O        0.8163102728   -1.3309177562    0.4915807950
H        1.3981412855   -1.9709848825    0.9566178134
H        1.3146647142   -0.4744279737    0.5792698969
O       -1.2014759777   -0.9996172349    2.3281832155
H       -0.5434925349   -1.1190704761    1.5989776600
H       -1.3800365883   -0.0311059048    2.2552700851
O        2.0080627384    0.9335944167    0.7228219553
H        1.4431394245    1.7377661448    0.7423586060
H        2.8349804751    1.2266958535    1.1676681468
O       -0.0386211957    0.9006568083   -2.2670362450
H        0.9309282729    0.8866447689   -2.0903577017
H       -0.2463978351   -0.0725026668   -2.2372323924
O       -0.4416727175   -1.5693728913   -1.7251925232
H        0.0303349690   -1.6848961684   -0.8621825743
H       -0.1115627269   -2.3284625777   -2.2556849532
O       -0.9139644246    2.0930651214   -0.0890651916
H       -0.6090734791    1.7038870808   -0.9532536472
H       -1.8626246730    1.8176883394   -0.0758729463
18   
Iteration 14 Energy -449.86330901
O        0.8118692884   -1.3574781963    0.5381711927
H        1.4302162763   -1.9780666119    0.9804773642
H        1.2968856396   -0.4904703195    0.5961160897
O       -1.2291702187   -0.9909074266    2.3519248496
H       -0.5493435925   -1.1548605548    1.6514587250
H       -1.4042987068   -0.0279059468    2.2221500750
O        1.9597042032    0.9389157330    0.6584461906
H        1.3422424232    1.7017746271    0.7191811414
H        2.7542258598    1.2461323307    1.1505961687
O       -0.0776709365    0.9084182280   -2.3052538868
H        0.9010191719    0.9622248359   -2.1972484569
H       -0.2239086289   -0.0717496047   -2.1942110243
O       -0.4066231390   -1.5470114819   -1.7287802273
H        0.0581441205   -1.6397541229   -0.8581527362
H       -0.1014407359   -2.3373952583   -2.2261113380
O       -0.7930000650    2.0383667239   -0.0781815599
H       -0.5831554284    1.6791333203   -0.9827486616
H       -1.7580555316    1.8392737259   -0.0109639066
18   
Iteration 15 Energy -449.86890592
O        0.8036052062   -1.3799497100    0.5955827459
H        1.4658325928   -1.9942671002    0.9817160138
H        1.2671285857   -0.4979192151    0.6261348098
O       -1.2592020200   -0.9813638655    2.3781398529
H       -0.5563159929   -1.1973261104    1.7151362408
H       -1.4218904136   -0.0293417069    2.1701710557
O        1.8752775602    0.9429958851    0.5743236251
H        1.1755068907    1.6318187403    0.6568000996
H        2.6108920701    1.2815989594    1.1347241616
O       -0.1035970856    0.9124788069   -2.3476106041
H        0.8778119907    1.0139871857   -2.3513329725
H       -0.2200962723   -0.0626583720   -2.1462021463
O       -0.3613047568   -1.5078479178   -1.7125201708
H        0.0849923920   -1.5705006285   -0.8250707794
H       -0.0646026136   -2.3137388921   -2.1926578709
O       -0.6162182144    1.9648912207   -0.0597624672
H       -0.5420478330    1.6345264769   -0.9969164173
H       -1.5881320868    1.8712562447    0.0862148227
18   
Iteration 16 Energy -449.87189005
O        0.7972238713   -1.3950601203    0.6693988332
H        1.5014452262   -2.0177051334    0.9601796529
H        1.2341683673   -0.4941724428    0.6701226954
O       -1.2868991261   -0.9710825378    2.4034871146
H       -0.5638191250   -1.2490723571    1.7859728171
H       -1.4283750722   -0.0395646779    2.1005385493
O        1.7478487268    0.9443539503    0.4806949779
H        0.9263067409    1.4978573792    0.5134101367
H        2.3663676460    1.3440029159    1.1368949747
O       -0.1261277937    0.9231563365   -2.3732326059
H        0.8401320587    1.0339156091   -2.5404477169
H       -0.2242654133   -0.0396835455   -2.0827559522
O       -0.3207894986   -1.4593521125   -1.6896610408
H        0.0963844943   -1.4552957983   -0.7770987101
H        0.0093458072   -2.2688752327   -2.1464954720
O       -0.3706365476    1.8753681787   -0.0397656566
H       -0.4451599510    1.5856164649   -0.9929344237
H       -1.3255104120    1.9042331246    0.2085618263
18   
Iteration 17 Energy -449.85957719
O        0.8002774926   -1.3141286787    0.6276506865
H        1.4596509963   -2.0232295993    0.8226631246
H        1.2519781413   -0.4107270411    0.6761778256
O       -1.2239733335   -0.9852857701    2.3660708149
H       -0.5401848613   -1.2462469125    1.6991338308
H       -1.3346676198   -0.0364078898    2.0926572119
O        1.7901785268    0.8353736052    0.6019814997
H        0.9364497857    1.3108517493    0.3699483205
H        2.3010119485    1.3959802276    1.2296687559
O        0.0076349515    0.9105773194   -2.2195941414
H        0.9588772543    0.8120172789   -2.4544744362
H       -0.3567357672   -0.0198010262   -2.0208582233
O       -0.4235822804   -1.4882270675   -1.6753428803
H       -0.0505913862   -1.3794407846   -0.7349908275
H        0.1279571478   -2.1386808951   -2.1839386641
O       -0.4642585570    2.0078228748   -0.0709960712
H       -0.3843274087    1.5356268932   -0.9528521992
H       -1.4280550312    1.9525657170    0.1139653727
18   
Iteration 18 Energy -449.87377164
O        0.7960833660   -1.3465282647    0.6451652846
H        1.4675377854   -2.0193048505    0.9068602600
H        1.2549229843   -0.4494825366    0.6639071809
O       -1.2552105751   -0.9835732645    2.3861751137
H       -0.5510871047   -1.2420349977    1.7390590911
H       -1.3923810031   -0.0430790604    2.1029711441
O        1.8177475005    0.8709490704    0.5481187253
H        0.9643982555    1.3815331469    0.4432314126
H        2.3636797501    1.3576517933    1.2058345289
O       -0.0811402786    0.9313270965   -2.2999487758
H        0.8851907742    0.9445689409   -2.4935416816
H       -0.2964341736   -0.0314455140   -2.0636510216
O       -0.3573866921   -1.4677714500   -1.6710175139
H        0.0471091869   -1.4334464990   -0.7463347597
H        0.0592472438   -2.2199887045   -2.1599540486
O       -0.4529753992    1.9573375685   -0.0718343565
H       -0.4314871594    1.5762863855   -0.9986237146
H       -1.4101744616    1.9356411408    0.1504531306
18   
Iteration 19 Energy -449.87987370
O        0.7828098650   -1.3583801900    0.6449857695
H        1.4468587060   -2.0320408640    0.9048098147
H        1.2872578832   -0.4845812777    0.6801288473
O       -1.2551854905   -0.9826790668    2.3860789220
H       -0.5407959951   -1.2423265861    1.7498966416
H       -1.4048188581   -0.0467112716    2.1026270061
O        1.8087199903    0.8810761541    0.5375415977
H        0.9834549745    1.4409252062    0.4663663804
H        2.3591825087    1.3318841451    1.2107326994
O       -0.1159604352    0.9201822573   -2.3117475874
H        0.8495919139    0.9781544426   -2.4971744320
H       -0.2530044780   -0.0566761614   -2.1008123567
O       -0.3531369911   -1.4601099381   -1.6389176226
H        0.0814193610   -1.4882153193   -0.7356012149
H        0.0505592447   -2.2047206876   -2.1394873067
O       -0.4521228895    1.9668641465   -0.0934853711
H       -0.4490581246    1.6351022050   -1.0387750141
H       -1.3981311856    1.9208928067    0.1597032266
18   
Iteration 20 Energy -449.88423650
O        0.7861381183   -1.3664944520    0.6407327401
H        1.4561449855   -2.0368067213    0.8895736321
H        1.2879791717   -0.4861079214    0.6626564977
O       -1.2515895408   -0.9833627178    2.3876077122
H       -0.5297023312   -1.2454947236    1.7603276358
H       -1.4131319862   -0.0514928317    2.0995311005
O        1.7353790067    0.8778056345    0.5266670756
H        0.9056692717    1.4324949568    0.4151090891
H        2.2557741969    1.3291859554    1.2273985281
O       -0.1454254983    0.9086607991   -2.3286740983
H        0.8150949349    0.9845379093   -2.5306192047
H       -0.2428234436   -0.0714836075   -2.1127991003
O       -0.3550562323   -1.4527614098   -1.6077429720
H        0.0806963894   -1.4958531593   -0.7060011980
H        0.0799757517   -2.1675174088   -2.1213131475
O       -0.3601588962    1.9812537218   -0.0810801550
H       -0.3745964390    1.6406759487   -1.0270933756
H       -1.3027274593    1.9214000285    0.1925892403
18   
Iteration 21 Energy -449.88646745
O        0.7818281821   -1.3782528646    0.6408587461
H        1.4736096723   -2.0329675440    0.8752265429
H        1.2490767765   -0.4699899220    0.6489157507
O       -1.2427021910   -0.9941204047    2.3917017980
H       -0.5089614293   -1.2347043598    1.7694027418
H       -1.4314641066   -0.0677953163    2.1021488443
O        1.6852156959    0.8520467581    0.5347518582
H        0.8303418402    1.3768256621    0.3913463362
H        2.1507035785    1.3089304590    1.2695951061
O       -0.1915975279    0.9131417553   -2.3129937392
H        0.7576706733    1.0078374532   -2.5586908433
H       -0.2611410227   -0.0725197906   -2.0974620742
O       -0.3267563696   -1.4315789517   -1.5633561215
H        0.1104133275   -1.5257385704   -0.6636183399
H        0.1112945004   -2.1261339527   -2.1008098083
O       -0.2545590918    2.0105670775   -0.1673613331
H       -0.3566029691    1.6614382131   -1.1106328769
H       -1.1487295390    1.9216542993    0.2378474123
18   
Iteration 22 Energy -449.88915985
O        0.7747721158   -1.3803342251    0.6452171805
H        1.4546529302   -2.0599982461    0.8381057114
H        1.2620225718   -0.4701582166    0.6959568907
O       -1.2166373817   -1.0206303444    2.3944984915
H       -0.4835637103   -1.2236415917    1.7593216060
H       -1.4329339827   -0.0980379535    2.1131748950
O        1.6519154752    0.8072676327    0.5614664409
H        0.8474419023    1.3797936287    0.2804282238
H        2.0144966113    1.2441653730    1.3578549405
O       -0.2316519787    0.9183771789   -2.3091925038
H        0.7023235694    0.9896886597   -2.6095064592
H       -0.3209814494   -0.0660265940   -2.0725886873
O       -0.3163440321   -1.4304008109   -1.5398536630
H        0.1259939705   -1.5138253619   -0.6339810129
H        0.1572396311   -2.0958903618   -2.0838199890
O       -0.2146261647    2.1135163828   -0.2144909184
H       -0.2834304698    1.6895840729   -1.1406813675
H       -1.0630496081    1.9351907781    0.2449602210
18   
Iteration 23 Energy -449.88954520
O        0.7732680577   -1.4086918426    0.6667063119
H        1.5064175585   -2.0257820541    0.8702200744
H        1.1867168533   -0.4568892799    0.6395012625
O       -1.2204565163   -1.0280471119    2.4094021552
H       -0.4826953882   -1.2669729022    1.7910068880
H       -1.4311243293   -0.1096255258    2.1089226279
O        1.6669373939    0.8050483365    0.5954207556
H        0.9187723919    1.4367799302    0.2686183624
H        1.9883060896    1.2133736673    1.4213532458
O       -0.2352618546    0.9041486987   -2.3238160767
H        0.6781739003    1.0047367339   -2.6694086949
H       -0.2876748530   -0.0853894015   -2.0946296492
O       -0.3312526997   -1.4266746949   -1.5427646993
H        0.1040855185   -1.5043101055   -0.6309154033
H        0.1549217962   -2.0705199522   -2.1011835418
O       -0.2107117986    2.1213802883   -0.2253763880
H       -0.3043124337    1.6766582167   -1.1450434220
H       -1.0464696864    1.9394169996    0.2488561915
18   
Iteration 24 Energy -449.89098505
O        0.7547167303   -1.3730185787    0.6672348825
H        1.4460084203   -2.0335310124    0.8870427205
H        1.2360000621   -0.4534504164    0.6801783118
O       -1.2233376840   -1.0571059912    2.4361548825
H       -0.5035246364   -1.3029275723    1.7966571116
H       -1.4456980831   -0.1425234801    2.1293302607
O        1.7093830318    0.8589170925    0.5941887952
H        0.9324015515    1.4569638681    0.2612519343
H        1.9537518294    1.2262758687    1.4685565889
O       -0.2660375964    0.9167111218   -2.3442162887
H        0.6245073812    0.9732487857   -2.7547184520
H       -0.3304989679   -0.0633553683   -2.0772814810
O       -0.2861916191   -1.4037246675   -1.5773960674
H        0.1095678343   -1.4689801430   -0.6453799348
H        0.1625258050   -2.1134948407   -2.0866770409
O       -0.1550704846    2.1020995594   -0.2341366802
H       -0.2981127540    1.6700274970   -1.1558779926
H       -0.9927508204    1.9265082782    0.2419584498
18   
Iteration 25 Energy -449.89137300
O        0.7517673815   -1.3306330409    0.6546395948
H        1.4552499865   -1.9913290896    0.8349727151
H        1.2275671767   -0.4089071348    0.7120815784
O       -1.2253119766   -1.0724562370    2.4569759786
H       -0.4965811315   -1.2987366153    1.8219046003
H       -1.4573861505   -0.1670780142    2.1336208713
O        1.6629750331    0.8114912818    0.6345127574
H        0.9088224504    1.4458798383    0.3188858384
H        1.9410277625    1.1644563289    1.5084350967
O       -0.3014054626    0.8960395199   -2.3485283862
H        0.5621789635    1.0023749676   -2.8071031203
H       -0.3023345105   -0.0815140502   -2.0612585738
O       -0.2876569674   -1.4123566337   -1.5681929466
H        0.1226672651   -1.4801387726   -0.6432749000
H        0.1675790480   -2.1022674024   -2.0974205903
O       -0.1069134260    2.1279100919   -0.2787236595
H       -0.2560658808    1.6841295318   -1.1938438108
H       -0.9385395610    1.9317754310    0.2091869570
18   
Iteration 26 Energy -449.89237880
O        0.7378831421   -1.3597420841    0.6539196042
H        1.4465450517   -2.0108767583    0.8428375115
H        1.1980585239   -0.4280707918    0.6981893219
O       -1.2189344092   -1.0829578093    2.4602231720
H       -0.4954982557   -1.2948692454    1.8161601623
H       -1.4666070545   -0.1794180264    2.1445668225
O        1.6989806379    0.8392064433    0.6425983530
H        0.9372922908    1.4477572520    0.2954489838
H        1.9240769636    1.1925326331    1.5293883324
O       -0.3162247854    0.8923237586   -2.3380775576
H        0.5392667245    1.0208929360   -2.8065723144
H       -0.3059569765   -0.0937337531   -2.0736090806
O       -0.2878123238   -1.4134667842   -1.5520198105
H        0.1414577447   -1.4737947926   -0.6350064606
H        0.1627917761   -2.0984022283   -2.0904954157
O       -0.1053362474    2.1367700653   -0.2838114607
H       -0.2161014268    1.6891314466   -1.2031793380
H       -0.9462413757    1.9353577393    0.1863091745
18   
Iteration 27 Energy -449.89281482
O        0.7461123986   -1.3525917322    0.6630476146
H        1.4477794250   -2.0105427337    0.8499072742
H        1.2187215301   -0.4247281861    0.6841613741
O       -1.2086299584   -1.0934749248    2.4618259929
H       -0.4905266764   -1.2995929022    1.8090366247
H       -1.4741550073   -0.1904634739    2.1560876771
O        1.6851219236    0.8399669957    0.6641720340
H        0.9568311204    1.4631401107    0.2669900295
H        1.8861841187    1.2056102031    1.5501122514
O       -0.2915188287    0.8982229999   -2.3322901820
H        0.5503559488    0.9839286000   -2.8302144071
H       -0.3283413427   -0.0929167907   -2.0793296871
O       -0.2979871078   -1.4027837504   -1.5622505765
H        0.1220015228   -1.4624178461   -0.6382530097
H        0.1805632051   -2.0722233224   -2.0969296605
O       -0.0949105319    2.1217145872   -0.2846183548
H       -0.2434041727    1.6501807660   -1.1873893880
H       -0.9365575667    1.9576114006    0.1928043935
18   
Iteration 28 Energy -449.89351832
O        0.7445952260   -1.3421250744    0.6520308321
H        1.4469460484   -2.0009854969    0.8372510254
H        1.2125621115   -0.4108228772    0.7039657072
O       -1.2072851895   -1.1075808495    2.4750465155
H       -0.4907003677   -1.3059400109    1.8171238605
H       -1.4905805090   -0.2102060388    2.1687435836
O        1.6900895659    0.8361018310    0.6773055274
H        0.9579987667    1.4600549776    0.2855053116
H        1.8713733766    1.1921282752    1.5721147368
O       -0.3138539881    0.8897194354   -2.3538059065
H        0.5108432994    0.9787264224   -2.8785416408
H       -0.3282380786   -0.0971075586   -2.0800942391
O       -0.2914657387   -1.4072742495   -1.5631561383
H        0.1192972569   -1.4538022908   -0.6327111361
H        0.1903633187   -2.0806522812   -2.0894661683
O       -0.0672847893    2.1340358733   -0.2920951769
H       -0.2215362147    1.6761972255   -1.2037754332
H       -0.9054840941    1.9681726878    0.1914287394
18   
Iteration 29 Energy -449.89389356
O        0.7346637433   -1.3279916155    0.6509484164
H        1.4362357816   -1.9923580654    0.8209312198
H        1.2042605285   -0.3963568143    0.7244380213
O       -1.1973386593   -1.1333834937    2.4932832541
H       -0.4859834129   -1.3088118496    1.8240082349
H       -1.5115366754   -0.2471804151    2.1870971556
O        1.6861189615    0.8381174208    0.7059954173
H        0.9697868008    1.4711239737    0.2987216901
H        1.8346717809    1.1792954862    1.6141041630
O       -0.3390020170    0.8844670914   -2.3449466492
H        0.4528106687    0.9868031478   -2.9178414277