18   
Iteration 0 Energy -30.43748291
O        0.8559100000   -1.3823600000    0.3174600000
H        1.6752400000   -1.8477400000    0.4858000000
H        1.1176100000   -0.4684300000    0.2057500000
O       -1.0986300000   -0.8583700000    2.1731900000
H       -0.4031000000   -1.1460800000    1.5818400000
H       -1.0851100000    0.0968300000    2.1128200000
O        1.8644800000    1.2201800000    1.3331100000
H        2.0104700000    1.8829200000    0.6580600000
H        2.6420500000    0.6632600000    1.2947900000
O        0.4360100000    0.8591100000   -1.7990100000
H        1.2952700000    0.5943600000   -1.4706600000
H        0.1355600000    0.1112200000   -2.3153700000
O       -0.8009300000   -2.0911300000   -1.5730000000
H       -0.2203200000   -1.8297700000   -0.8582800000
H       -0.3280600000   -1.8458100000   -2.3682600000
O       -1.4967600000    2.2679100000   -0.3295400000
H       -0.8467900000    1.6940800000   -0.7351300000
H       -2.3252600000    1.7984600000   -0.4267000000
18   
Iteration 1 Energy -30.45241270
O        0.9124854994   -1.3294137146    0.3188868150
H        1.7141168079   -1.8292812481    0.4781828432
H        1.1042616918   -0.3848343953    0.4369328965
O       -1.1312271049   -0.8342677254    2.2029085158
H       -0.4666004747   -1.1796956281    1.5958882836
H       -1.0874140683    0.1210247930    2.1244102258
O        1.8918493593    1.1133219335    1.2286896231
H        1.9085046390    1.8642054153    0.6290525354
H        2.7723919166    0.7335757788    1.2497704701
O        0.4869677226    0.8474166280   -1.7779823275
H        1.3485193426    0.4938397738   -1.5547103793
H        0.0136556379    0.1600385074   -2.2565769817
O       -0.8164749761   -2.0791301932   -1.6472321230
H       -0.2945991907   -1.8337749079   -0.8680919510
H       -0.2707098338   -1.9185962471   -2.4175528222
O       -1.5040925894    2.2653581836   -0.3004591470
H       -0.8258066435    1.7507280448   -0.7546937289
H       -2.3199299750    1.7698233929   -0.3909733621
18   
Iteration 2 Energy -30.45670139
O        0.9615919667   -1.2968986859    0.3296548307
H        1.7494677659   -1.8200794039    0.4796881793
H        1.1439815359   -0.3667811689    0.5510685608
O       -1.1573538104   -0.8163483363    2.2284405610
H       -0.5159153580   -1.1956932452    1.6162626748
H       -1.0896748332    0.1357739201    2.1300144925
O        1.9107994620    1.0724446020    1.1840967574
H        1.8507903171    1.8456668473    0.6161818700
H        2.8290588359    0.7981278466    1.2331244426
O        0.5093763777    0.8397663426   -1.7742206511
H        1.3648658975    0.4428296829   -1.6053294168
H       -0.0359777586    0.1825198477   -2.2172417181
O       -0.8417934641   -2.0804209863   -1.7132196197
H       -0.3653545467   -1.8521162528   -0.8999389502
H       -0.2394607099   -1.9598601322   -2.4476187319
O       -1.5067678459    2.2644707828   -0.2803136419
H       -0.8202740557    1.7859275956   -0.7617698244
H       -2.3114620155    1.7510091356   -0.3724304295
18   
Iteration 3 Energy -30.46124762
O        0.9924056974   -1.2949545177    0.2944914981
H        1.7551578953   -1.8438802011    0.4729082801
H        1.1621119358   -0.4287484730    0.7215859553
O       -1.1920192651   -0.7864201439    2.2598757614
H       -0.5880236927   -1.2057985254    1.6357447697
H       -1.1002362876    0.1606724559    2.1335607099
O        1.9893384732    1.0480611071    1.1165152547
H        1.7280856961    1.8081846914    0.5903484742
H        2.9438244138    1.0345976546    1.2151504394
O        0.5364427949    0.8212640304   -1.7667502076
H        1.3486391199    0.3161529310   -1.6964047920
H       -0.1417434524    0.2321315430   -2.1105642604
O       -0.8481913469   -2.0418750560   -1.8038164164
H       -0.4260446438   -1.8333579362   -0.9584127225
H       -0.1662505141   -2.0655501047   -2.4761705674
O       -1.4910842438    2.2523741609   -0.2309250525
H       -0.7945482915    1.8529695161   -0.7677694553
H       -2.2719665277    1.7045152591   -0.3329182832
18   
Iteration 4 Energy -30.46391000
O        1.0089025242   -1.3133552344    0.2738226451
H        1.7298588383   -1.8984446532    0.5070733555
H        1.2022786418   -0.4685366207    0.7311036544
O       -1.2083827948   -0.7665569692    2.2697700474
H       -0.6341118779   -1.2046897591    1.6321744006
H       -1.1096225436    0.1776820749    2.1275280473
O        2.0457909899    1.0556018417    1.1000094303
H        1.6457129543    1.7597321511    0.5834615841
H        2.9804085201    1.2363848351    1.2094989683
O        0.5177177178    0.8032613558   -1.7680352230
H        1.3033012184    0.2541035237   -1.7157576513
H       -0.2017117540    0.2268417493   -2.0451185957
O       -0.8369715679   -1.9827336807   -1.8626107781
H       -0.4283717926   -1.8017386050   -1.0061286497
H       -0.1281974105   -2.1398389126   -2.4879171354
O       -1.4598652455    2.2350573614   -0.1879207596
H       -0.7633298229    1.8855498300   -0.7577779758
H       -2.2275088343    1.6720181034   -0.3067259789
18   
Iteration 5 Energy -30.46754394
O        1.0599988250   -1.3697450068    0.2377783079
H        1.6097284996   -2.0594284426    0.6180460075
H        1.3473452164   -0.5643897318    0.7008378139
O       -1.2342922935   -0.7130143248    2.2699012617
H       -0.7322840291   -1.1735524817    1.5926984961
H       -1.1442957368    0.2269229661    2.0959887090
O        2.1940152882    1.1233417303    1.0430458948
H        1.5083884367    1.5749196547    0.5414031731
H        2.8847350138    1.7649760221    1.2047400484
O        0.4022121163    0.7307165077   -1.7791402887
H        1.1559725217    0.1389671694   -1.6914846366
H       -0.3509940358    0.1355626466   -1.8961499992
O       -0.7190017399   -1.7615979475   -2.0115414186
H       -0.3469123676   -1.6985727049   -1.1245094641
H       -0.1164998004   -2.3224198917   -2.5051844386
O       -1.3307148836    2.1641165558   -0.0564053547
H       -0.6670558982    1.9390054085   -0.7196788208
H       -2.0844473721    1.5945302620   -0.2238959056
18   
Iteration 6 Energy -30.47010442
O        1.0314415157   -1.3754231104    0.2556808849
H        1.6037702795   -2.0496897394    0.6286762647
H        1.3413608406   -0.5386486314    0.6388232828
O       -1.2152320186   -0.7239822328    2.2493708802
H       -0.6880448665   -1.1591164181    1.5734874692
H       -1.1439242001    0.2204640208    2.0914617351
O        2.1197120545    1.1020752418    1.0529767077
H        1.5024173757    1.6437115732    0.5516310403
H        2.8994328920    1.6388460122    1.2004634570
O        0.4062171467    0.7744565102   -1.7761113349
H        1.1894585563    0.2325935756   -1.6452188359
H       -0.2923041857    0.1362795270   -1.9791751372
O       -0.7484914919   -1.8013821434   -1.9393582185
H       -0.3217748395   -1.7594095081   -1.0739793202
H       -0.1428506237   -2.2813867827   -2.5077060709
O       -1.3253328619    2.1625264929   -0.0710989787
H       -0.6760239222    1.8854591894   -0.7303400416
H       -2.1039338904    1.6229648149   -0.2231343985
18   
Iteration 7 Energy -30.47307587
O        1.0168230144   -1.4083066601    0.2822115175
H        1.5294674135   -2.0927081391    0.7165624958
H        1.4010576700   -0.5592219172    0.5451624265
O       -1.1840192026   -0.7124679520    2.1975736298
H       -0.6404280079   -1.0984783290    1.5038801050
H       -1.1661554139    0.2375199955    2.0572126606
O        2.0422677590    1.1080556263    1.0087361350
H        1.4242729826    1.6779218049    0.5378484281
H        2.8211703097    1.6429417065    1.1816660713
O        0.3552811407    0.7924195996   -1.7977416110
H        1.1735726542    0.3535293203   -1.5518111069
H       -0.2393460234    0.0648463056   -2.0489333458
O       -0.7076837643   -1.7429029465   -1.8874243724
H       -0.2289013648   -1.8052856171   -1.0470692029
H       -0.2167715623   -2.2792940576   -2.5133021613
O       -1.2339728004    2.1094344338   -0.0139638049
H       -0.6482072795    1.7957751350   -0.7198605788
H       -2.0625297643    1.6465600825   -0.1542979001
18   
Iteration 8 Energy -30.47664108
O        1.0198448248   -1.4694933961    0.3326792616
H        1.4379381241   -2.1433983193    0.8688925136
H        1.4719610466   -0.6285228865    0.4928351192
O       -1.1350463671   -0.6758950913    2.1099484316
H       -0.5741731881   -0.9891767128    1.3910926001
H       -1.2024758888    0.2748619483    1.9884334563
O        1.9480005015    1.1241010125    0.8952858559
H        1.2601217364    1.6838482186    0.5133796416
H        2.6735920590    1.7097927384    1.1334229321
O        0.3211055204    0.8124206864   -1.8716042950
H        1.1448239757    0.5218817388   -1.4752080952
H       -0.1595982199   -0.0165347537   -2.0778018145
O       -0.6278340513   -1.6697803150   -1.8745672153
H       -0.1435653535   -1.8447737697   -1.0479496988
H       -0.3283771357   -2.3157548760   -2.5165580388
O       -1.0810678584    2.0055342493    0.1115188861
H       -0.6129260254    1.6716588279   -0.6776341802
H       -1.9764259393    1.6795690916    0.0002840254
18   
Iteration 9 Energy -30.47780682
O        1.0387931787   -1.5809528536    0.4136388699
H        1.3150234753   -2.1802136551    1.1044440305
H        1.5567884195   -0.7641594930    0.4761162525
O       -1.0609025621   -0.5833378844    1.9624498253
H       -0.4735014688   -0.8155803994    1.2286297215
H       -1.2408947096    0.3533857801    1.8424404714
O        1.7909363590    1.1651855510    0.6756883495
H        0.9565280324    1.6220436579    0.4930146097
H        2.3957318808    1.8192514506    1.0392302672
O        0.3240214631    0.8759433486   -1.9959675291
H        1.0962389058    0.8274652145   -1.4303185477
H       -0.0218686609   -0.0499652083   -2.0410018509
O       -0.5027971668   -1.6494823306   -1.8944465346
H       -0.0587953899   -1.9148794802   -1.0648792248
H       -0.5145306982   -2.3916726761   -2.4976137884
O       -0.8147399223    1.7823340032    0.2976995402
H       -0.5782061320    1.5004873808   -0.6198399341
H       -1.7719272434    1.7144859852    0.3071648573
18   
Iteration 10 Energy -30.48114047
O        1.0447843323   -1.5260736217    0.3716271741
H        1.4152143655   -2.1546430163    0.9906213996
H        1.4775519152   -0.6703746381    0.5250764627
O       -1.1054358357   -0.6187506817    2.0407042239
H       -0.5207062959   -0.9210444995    1.3325583843
H       -1.2010974010    0.3267802825    1.9003393502
O        1.8808348548    1.1091952543    0.7645504319
H        1.0834585039    1.6177256003    0.5600886654
H        2.5461887666    1.7379460000    1.0522777217
O        0.3492094176    0.8720305915   -1.9349113152
H        1.1682463701    0.6768773116   -1.4736290841
H       -0.0969492815    0.0069053625   -2.0575493730
O       -0.5893549222   -1.6795408323   -1.8906713960
H       -0.1154200142   -1.8515353459   -1.0587271892
H       -0.4178654808   -2.4017621754   -2.4949283685
O       -0.9610835276    1.9022101592    0.1864160649
H       -0.6179571336    1.5761959650   -0.6749773204
H       -1.9037208727    1.7281966756    0.1575835531
18   
Iteration 11 Energy -30.48289194
O        1.0613290136   -1.5449953891    0.3747927067
H        1.4184642919   -2.1461841601    1.0294272483
H        1.4673170473   -0.6762386131    0.5339329170
O       -1.1065747574   -0.5821037308    2.0242556386
H       -0.5192754920   -0.9298148930    1.3389790825
H       -1.1729726670    0.3600480360    1.8479544140
O        1.8574639283    1.0971328613    0.7145281281
H        1.0081962553    1.5510924545    0.6095052302
H        2.4878538899    1.7528458583    1.0153562342
O        0.3514255101    0.8815673859   -1.9542769439
H        1.1759726835    0.7189494765   -1.4870008493
H       -0.0726488286    0.0082425374   -2.0630866171
O       -0.5765878652   -1.6758191200   -1.8887267478
H       -0.1003730538   -1.8452685439   -1.0612038592
H       -0.4422326359   -2.4253913773   -2.4684573342
O       -0.9224279013    1.8691480969    0.2070406553
H       -0.6065387429    1.5748988573   -0.6770023047
H       -1.8724929152    1.7422286549    0.2004317868
18   
Iteration 12 Energy -30.48331427
O        1.0953555357   -1.6126074750    0.4146458868
H        1.4257576254   -2.0968958099    1.1740222535
H        1.4332008168   -0.7016945795    0.5024214105
O       -1.0872242525   -0.4721359333    1.9549249825
H       -0.5134599675   -0.9601925116    1.3492008032
H       -1.0499797914    0.4433604241    1.6608631531
O        1.7154021245    1.0666664570    0.5774307612
H        0.7969305783    1.3369282675    0.7518908477
H        2.2798218207    1.7572343653    0.9221504429
O        0.3554049304    0.9331039762   -2.0095901424
H        1.1863186588    0.8733303807   -1.5242345099
H        0.0170660982    0.0296081276   -2.0980045382
O       -0.5476438069   -1.6756530510   -1.8574423659
H       -0.0408734334   -1.8274401567   -1.0492802356
H       -0.5101578989   -2.4809824452   -2.3738855574
O       -0.8018203238    1.7680950828    0.2640472426
H       -0.5601794244    1.5547296708   -0.6689441507
H       -1.7580215293    1.7948836018    0.3062331015
18   
Iteration 13 Energy -30.48470177
O        1.0824314445   -1.5794679583    0.3925414024
H        1.4492047478   -2.1056862806    1.1053525858
H        1.4283671294   -0.6760829307    0.5078309922
O       -1.1019527754   -0.5208506437    2.0001614665
H       -0.5390160320   -0.9937303593    1.3742205872
H       -1.0746781457    0.4012289558    1.7251188166
O        1.7992862051    1.0534346644    0.6516007072
H        0.9022644445    1.4228422870    0.7017282592
H        2.3948290496    1.7352942610    0.9624486116
O        0.3418840440    0.9094314951   -1.9787381008
H        1.1802328893    0.7796661983   -1.5224764245
H       -0.0440731271    0.0249822497   -2.0894374956
O       -0.5711162082   -1.6730083388   -1.8659263553
H       -0.0701033117   -1.8099419928   -1.0493464954
H       -0.4525159788   -2.4572911350   -2.4028087827
O       -0.8897265596    1.8428996056    0.2385129357
H       -0.5546498659    1.5938730331   -0.6533880013
H       -1.8447701890    1.7827452808    0.1990546768
18   
Iteration 14 Energy -30.48501841
O        1.0854046600   -1.5961847458    0.3995940676
H        1.4483060093   -2.1062172332    1.1255222735
H        1.4357058444   -0.6924613317    0.4933836119
O       -1.0972265619   -0.5074984689    1.9922415777
H       -0.5445949162   -1.0069167187    1.3782465384
H       -1.0609562582    0.4055848743    1.6871466144
O        1.7846133069    1.0539974361    0.6420446125
H        0.8856479646    1.4161627351    0.7056032726
H        2.3763139785    1.7346892384    0.9632040418
O        0.3345677382    0.9225048571   -1.9739364227
H        1.1768718154    0.7887520259   -1.5266042311
H       -0.0558213645    0.0381887851   -2.0848588465
O       -0.5572015472   -1.6683496856   -1.8579583760
H       -0.0570710943   -1.8085126263   -1.0400113220
H       -0.4526033211   -2.4576847594   -2.3905213346
O       -0.8751845557    1.8302233130    0.2403188296
H       -0.5589951459    1.5902271390   -0.6612577883
H       -1.8318787914    1.7938335573    0.2042922667
18   
Iteration 15 Energy -30.48537127
O        1.0945612292   -1.6357816641    0.4245219910
H        1.4628794796   -2.0984515858    1.1783358038
H        1.4347505157   -0.7245279275    0.4666479482
O       -1.0800792233   -0.4675895808    1.9664349524
H       -0.5575545780   -1.0466176818    1.3994061998
H       -1.0126113975    0.4089836021    1.5675524773
O        1.7446085690    1.0341730773    0.6166510603
H        0.8426371182    1.3793913302    0.7230742906
H        2.3327566433    1.7077244647    0.9594119610
O        0.3110648258    0.9507320881   -1.9835241951
H        1.1643197268    0.8293365883   -1.5538631029
H       -0.0676455894    0.0590227105   -2.0904802462
O       -0.5300273227   -1.6565303539   -1.8280440658
H       -0.0227842213   -1.7956052616   -1.0121217839
H       -0.4453911234   -2.4554311236   -2.3497908909
O       -0.8631949388    1.8113864174    0.2592796642
H       -0.5527389601    1.5891918895   -0.6516730126
H       -1.8196529923    1.8409314024    0.2046303343
18   
Iteration 16 Energy -30.48559266
O        1.1002743638   -1.6490656305    0.4357487315
H        1.4763690674   -2.1061025016    1.1889627844
H        1.4352440853   -0.7357139295    0.4718218065
O       -1.0732055051   -0.4631282291    1.9611479315
H       -0.5601849082   -1.0628789838    1.4079631524
H       -1.0148635077    0.3979222605    1.5257522056
O        1.7468703957    1.0236962821    0.6170205687
H        0.8486619496    1.3788077241    0.7175754688
H        2.3393890543    1.6890024028    0.9686728013
O        0.2932852456    0.9600911145   -1.9821141328
H        1.1537385181    0.8387405796   -1.5677684910
H       -0.0839110675    0.0661937064   -2.0844583783
O       -0.5191787900   -1.6491777660   -1.8157493606
H       -0.0135794535   -1.7898761896   -0.9983777837
H       -0.4318115286   -2.4464432296   -2.3392595614
O       -0.8703417987    1.8161308109    0.2527266451
H       -0.5650938557    1.5901768360   -0.6598664914
H       -1.8257645040    1.8719631342    0.1966514888
18   
Iteration 17 Energy -30.48605262
O        1.1303528932   -1.7012536086    0.4811888870
H        1.5271230590   -2.1427362922    1.2329020116
H        1.4428368294   -0.7791791835    0.5072745216
O       -1.0462861256   -0.4448377675    1.9321374335
H       -0.5571979282   -1.1044204222    1.4295625618
H       -1.0429027916    0.3521432800    1.3791286946
O        1.7535744104    0.9856220309    0.6036863567
H        0.8652951811    1.3640387599    0.6932749063
H        2.3551241617    1.6158429203    1.0022101534
O        0.2284296407    0.9906477243   -2.0029767184
H        1.1102872164    0.8966058022   -1.6298924322
H       -0.1245328871    0.0819135046   -2.0749926623
O       -0.4770691216   -1.6251305543   -1.7657472548
H        0.0229186465   -1.7780823314   -0.9461664934
H       -0.3883845420   -2.4152483452   -2.2989259643
O       -0.9054244977    1.8333024678    0.2437449552
H       -0.6126717117    1.5922325614   -0.6720062558
H       -1.8455746721    2.0088778447    0.1820466849
18   
Iteration 18 Energy -30.48622961
O        1.1419189596   -1.7054730665    0.4901686800
H        1.5381872334   -2.1568342357    1.2366385344
H        1.4496915128   -0.7814913430    0.5300633403
O       -1.0430931718   -0.4560748873    1.9318519848
H       -0.5482930014   -1.0980747329    1.4117694627
H       -1.0681792717    0.3492313249    1.3927669606
O        1.7581037862    0.9781710738    0.5965816078
H        0.8713362679    1.3607484177    0.6835982775
H        2.3614289389    1.5965167497    1.0105059749
O        0.2154473018    0.9909718335   -2.0147738110
H        1.0993888550    0.9167129410   -1.6419290752
H       -0.1218037717    0.0764736745   -2.0737744797
O       -0.4734918525   -1.6256225799   -1.7574525070
H        0.0273906703   -1.7820817416   -0.9403625450
H       -0.3829855314   -2.4116024216   -2.2962803088
O       -0.9129970673    1.8392421661    0.2347166174
H       -0.6291600308    1.5935103674   -0.6814006775
H       -1.8469920664    2.0460148512    0.1837613492
18   
Iteration 19 Energy -30.48645907
O        1.1738053462   -1.7338596318    0.5159002857
H        1.5611837047   -2.1813963632    1.2698415833
H        1.4695831733   -0.8046475305    0.5586414070
O       -1.0315897876   -0.4556192894    1.9169922915
H       -0.5375882895   -1.0895233527    1.3855808365
H       -1.0977740383    0.3438560694    1.3751747119
O        1.7550954915    0.9624420858    0.5639444217
H        0.8597085636    1.3228915349    0.6616678236
H        2.3419696073    1.5566631932    1.0327596254
O        0.1794579192    1.0040845496   -2.0443265026
H        1.0691788881    0.9721517708   -1.6785130407
H       -0.1254332053    0.0783461217   -2.0718977130
O       -0.4490833831   -1.6252518199   -1.7304123091
H        0.0576376214   -1.7885345088   -0.9200156967
H       -0.3725121326   -2.4112036379   -2.2716046157
O       -0.9254669318    1.8384347353    0.2306344700
H       -0.6600693188    1.5990461875   -0.6906756714
H       -1.8322054675    2.1424582775    0.1927574782
18   
Iteration 20 Energy -30.48660482
O        1.1978195498   -1.7492898167    0.5301082593
H        1.5712913482   -2.1888042230    1.2957687539
H        1.4937039704   -0.8192110802    0.5647464673
O       -1.0240045559   -0.4582882758    1.9093094403
H       -0.5298207004   -1.0798606240    1.3632159071
H       -1.1144038555    0.3440043000    1.3771293350
O        1.7400809573    0.9492872397    0.5377270400
H        0.8407408384    1.2977975714    0.6438917896
H        2.3155645848    1.5166659538    1.0517493876
O        0.1546355013    1.0133241578   -2.0641065730
H        1.0476251439    1.0074543184   -1.7047501187
H       -0.1316499301    0.0819942829   -2.0726472258
O       -0.4301343685   -1.6293574283   -1.7076400728
H        0.0890831817   -1.7954428749   -0.9063977854
H       -0.3643779036   -2.4149778116   -2.2509760912
O       -0.9310371609    1.8353026781    0.2286154507
H       -0.6811138239    1.6030269166   -0.6972800626
H       -1.8081050162    2.2167131073    0.1979854842
18   
Iteration 21 Energy -30.48674418
O        1.2259370770   -1.7655516047    0.5394046958
H        1.5783680401   -2.1866259522    1.3249823420
H        1.5215770909   -0.8346391287    0.5553907196
O       -1.0177650481   -0.4612364464    1.9064504500
H       -0.5266048344   -1.0726955988    1.3465626616
H       -1.1275039104    0.3432920163    1.3824117147
O        1.7260270856    0.9410184987    0.5122464945
H        0.8177458100    1.2682915960    0.6138068539
H        2.2743495980    1.4770131750    1.0863489052
O        0.1227578220    1.0203581295   -2.0785216707
H        1.0211513628    1.0285204672   -1.7332204163
H       -0.1522294830    0.0857489372   -2.0700913967
O       -0.4058959719   -1.6331069619   -1.6882541195
H        0.1278235592   -1.7989404066   -0.8961285084
H       -0.3520284905   -2.4218978751   -2.2285623654
O       -0.9332667074    1.8330565149    0.2273558893
H       -0.6954631646    1.6092728183   -0.7029308909
H       -1.7690820747    2.2984602126    0.1991980267
18   
Iteration 22 Energy -30.48686624
O        1.2487434002   -1.7683597177    0.5401774508
H        1.5833041907   -2.1681501282    1.3441415311
H        1.5415486766   -0.8362141047    0.5375188812
O       -1.0110252692   -0.4669582310    1.9085858770
H       -0.5223316891   -1.0702119738    1.3380122223
H       -1.1351254503    0.3397194345    1.3911478701
O        1.7095576312    0.9291670854    0.4991701053
H        0.7995545451    1.2561660178    0.5891039562
H        2.2377978146    1.4263071629    1.1249620858
O        0.0955118094    1.0206883204   -2.0871514933
H        1.0010193872    1.0316026003   -1.7617581795
H       -0.1764746100    0.0846115238   -2.0714807261
O       -0.3893686481   -1.6393002135   -1.6714929712
H        0.1614067463   -1.7985288189   -0.8885733965
H       -0.3343393416   -2.4276663026   -2.2123064913
O       -0.9366297746    1.8334790081    0.2266311153
H       -0.7119901763    1.6086106615   -0.7073029146
H       -1.7252614815    2.3753760671    0.1970644628
18   
Iteration 23 Energy -30.48700814
O        1.2744665477   -1.7655488617    0.5325284077
H        1.5827982252   -2.1392001163    1.3589425959
H        1.5583922476   -0.8302749622    0.5138729204
O       -1.0030040363   -0.4740345529    1.9165583226
H       -0.5203632660   -1.0689383513    1.3326397522
H       -1.1426285812    0.3351600321    1.4071333110
O        1.7037488827    0.9296297077    0.4951173050
H        0.7885966512    1.2523499908    0.5524827291
H        2.1896772893    1.3804065613    1.1869654239
O        0.0598104047    1.0110856045   -2.0915742838
H        0.9746360660    1.0186849281   -1.7941731867
H       -0.2108485360    0.0736697360   -2.0697927894
O       -0.3735464026   -1.6480351310   -1.6653375635
H        0.1896352633   -1.7982428593   -0.8880468259
H       -0.3132834700   -2.4372743368   -2.2041214644
O       -0.9354364409    1.8328044756    0.2272665022
H       -0.7247795742    1.6022068571   -0.7099345630
H       -1.6619735097    2.4558896699    0.1959227921
18   
Iteration 24 Energy -30.48723630
O        1.3130532447   -1.7461302354    0.5129825791
H        1.5757443979   -2.0803515190    1.3712443762
H        1.5749430660   -0.8031837056    0.4793308317
O       -0.9829889553   -0.4853531254    1.9302967746
H       -0.5140430361   -1.0697571031    1.3254740916
H       -1.1486064956    0.3254909500    1.4315928514
O        1.6967140329    0.9368074671    0.5060139186
H        0.7815795934    1.2696984715    0.5091722381
H        2.1096590952    1.2952698121    1.2928994175
O        0.0014015986    0.9850835724   -2.1005642319
H        0.9311619949    0.9952492994   -1.8555312240
H       -0.2606079624    0.0437068535   -2.0719730635
O       -0.3588121833   -1.6712445256   -1.6588371524
H        0.2220115943   -1.8016402195   -0.8891353035
H       -0.2758017473   -2.4558312283   -2.2009122562
O       -0.9355061529    1.8304925818    0.2280033378
H       -0.7597478732    1.5842857589   -0.7150770911
H       -1.5342564512    2.5777452865    0.2014692914
18   
Iteration 25 Energy -30.48750903
O        1.3532769885   -1.6934691672    0.4638178077
H        1.5366022943   -1.9867486880    1.3571954817
H        1.5845274793   -0.7402269915    0.4280944320
O       -0.9533313626   -0.5012774547    1.9586151813
H       -0.5126732526   -1.0687438055    1.3179591944
H       -1.1379233222    0.3216028708    1.4884367464
O        1.6964322181    0.9802804892    0.5532340300
H        0.7853294789    1.3242309478    0.4728273200
H        1.9842058490    1.2150087353    1.4368817733
O       -0.0680046572    0.9309344364   -2.1059666982
H        0.8767196377    0.9424168492   -1.9294141162
H       -0.3211546826   -0.0144938520   -2.0753798534
O       -0.3577878009   -1.7180637073   -1.6756077039
H        0.2357273042   -1.8180662592   -0.9092022169
H       -0.2345445155   -2.4940138272   -2.2220374349
O       -0.9116564949    1.8229296576    0.2370360017
H       -0.7854137012    1.5455926494   -0.7079202629
H       -1.3344336996    2.6824455082    0.2078797034
18   
Iteration 26 Energy -30.48774041
O        1.3454226913   -1.6628003105    0.4348700972
H        1.5135545775   -1.9663659550    1.3283920294
H        1.5649072707   -0.7055426699    0.4234275459
O       -0.9402967644   -0.4976647991    1.9653931803
H       -0.5186094911   -1.0756512905    1.3215633234
H       -1.1186039607    0.3254122743    1.4929378488
O        1.6992401304    1.0053550218    0.5867756530
H        0.7911693868    1.3575325745    0.4946823373
H        1.9737743853    1.2300393544    1.4773554764
O       -0.0761242749    0.9095717566   -2.1020211122
H        0.8713019786    0.9249895980   -1.9404059325
H       -0.3251019794   -0.0367240958   -2.0774657603
O       -0.3760363316   -1.7400586157   -1.6911885872
H        0.2131715684   -1.8292629360   -0.9203954536
H       -0.2296116210   -2.5087535911   -2.2423126013
O       -0.8839603035    1.8172959650    0.2433125948
H       -0.7674771958    1.5045097792   -0.6912541849
H       -1.3008223060    2.6784563312    0.1927829309
18   
Iteration 27 Energy -30.48791626
O        1.3749019136   -1.6228346827    0.3989713273
H        1.4826050793   -1.9422827113    1.2976587186
H        1.5496767180   -0.6537036056    0.4364020550
O       -0.8742539460   -0.4789767174    1.9519531005
H       -0.5314067740   -1.0985789139    1.3008772471
H       -1.1040936376    0.3167125192    1.4551366783
O        1.7151572421    1.0621151392    0.6722487145
H        0.8063635224    1.4099659648    0.5438998193
H        1.8975707472    1.1609553056    1.6083169423
O       -0.1722949116    0.8654271946   -2.1273935894
H        0.7816450335    0.9497309418   -2.0442429581
H       -0.3550486510   -0.0939477691   -2.0831318834
O       -0.3806524868   -1.8020879700   -1.6783954964
H        0.2183712707   -1.8625492209   -0.9130369024
H       -0.1809828435   -2.5445462949   -2.2489460679
O       -0.8740623381    1.8243354714    0.2319457691
H       -0.8134311370    1.4885547466   -0.6973431790
H       -1.1041670403    2.7520489941    0.1915290901
18   
Iteration 28 Energy -30.48816033
O        1.3418909979   -1.6243272733    0.3980966784
H        1.4854059208   -1.9848266550    1.2758188391
H        1.5392149209   -0.6624915923    0.4620103694
O       -0.8843706788   -0.4694123798    1.9457013049
H       -0.5525395647   -1.0911280304    1.2905106109
H       -1.0927472171    0.3359341044    1.4565120841
O        1.7178843135    1.0509285613    0.6712093339
H        0.8036453922    1.3914485792    0.5793685324
H        1.9752251235    1.2381058173    1.5754033446
O       -0.1326201404    0.8725785079   -2.1248941991
H        0.8178827602    0.9542326374   -2.0047250861
H       -0.3264026188   -0.0832220095   -2.0804045838
O       -0.4011013106   -1.7918305457   -1.6869825945
H        0.1981358601   -1.8585704202   -0.9235203363
H       -0.2078182180   -2.5375423799   -2.2560091592
O       -0.8583121978    1.8210140066    0.2351592421
H       -0.7562540030    1.4704719466   -0.6820377132
H       -1.2312215792    2.6989755170    0.1652327177
18   
Iteration 29 Energy -30.48834772
O        1.3597614303   -1.6071865116    0.3801880845
H        1.4740841569   -1.9651104756    1.2625900486
H        1.5573187078   -0.6456224577    0.4439067963
O       -0.8741890968   -0.4734235074    1.9546732777
H       -0.5744988805   -1.0776380339    1.2684091110
H       -1.0857347224    0.3489671155    1.4982269138
O        1.7148068086    1.0582954667    0.6993589943
H        0.8015880929    1.3948247445    0.5832213127
H        1.9351772264    1.2161088066    1.6188971537
O       -0.1505758302    0.8533677294   -2.1308419443
H        0.8024443665    0.9281294947   -2.0312103138
H       -0.3530378013   -0.1010896466   -2.0779620507