18   
Iteration 0 Energy -0.01459772
O        0.8560000000   -1.3820000000    0.3170000000
H        1.6750000000   -1.8480000000    0.4860000000
H        1.1180000000   -0.4680000000    0.2060000000
O       -1.0990000000   -0.8580000000    2.1730000000
H       -0.4030000000   -1.1460000000    1.5820000000
H       -1.0850000000    0.0970000000    2.1130000000
O        1.8640000000    1.2200000000    1.3330000000
H        2.0100000000    1.8830000000    0.6580000000
H        2.6420000000    0.6630000000    1.2950000000
O        0.4360000000    0.8590000000   -1.7990000000
H        1.2950000000    0.5940000000   -1.4710000000
H        0.1360000000    0.1110000000   -2.3150000000
O       -0.8010000000   -2.0910000000   -1.5730000000
H       -0.2200000000   -1.8300000000   -0.8580000000
H       -0.3280000000   -1.8460000000   -2.3680000000
O       -1.4970000000    2.2680000000   -0.3300000000
H       -0.8470000000    1.6940000000   -0.7350000000
H       -2.3250000000    1.7980000000   -0.4270000000
18   
Iteration 1 Energy -0.01595780
O        1.2636846006   -1.0702837432    0.2082467709
H        2.2019062998   -1.2657234048    0.2547077338
H        1.2329262987   -0.1262895691    0.0270561406
O       -0.3786445316   -1.0358722062    2.4310298841
H        0.1890830669   -1.0794233448    1.6559654458
H       -0.7079354692   -0.1367870982    2.4323516920
O        1.6230810935    1.7755784185    0.9801418810
H        1.4734211059    2.4147156660    0.2814596363
H        2.5189585886    1.4686246681    0.8391592521
O       -0.0879529989    0.8258422302   -1.8671061353
H        0.8505142583    0.8296361848   -1.6818009791
H       -0.2531308604   -0.0002956043   -2.3222257414
O       -0.3446282881   -2.5335288749   -1.2480189054
H        0.2105782594   -1.8956409043   -0.7735041580
H       -0.1861481167   -2.3544468381   -2.1724861513
O       -2.0942103167    1.6370536125   -0.0534919256
H       -1.3767177458    1.3620102235   -0.6312541966
H       -2.7077852443    0.9028305844   -0.0732302440
18   
Iteration 2 Energy -0.01686944
O        0.9386377911   -1.3729268958   -0.1428891727
H        1.7854598035   -1.8071484446   -0.2688040658
H        1.1442534275   -0.4329379447   -0.1867680206
O       -0.2447581615   -1.3266195801    2.3473932227
H        0.0717307338   -1.3761468904    1.4385852179
H       -0.3068675196   -0.3873864160    2.5237496757
O        2.1421873997    1.1162970303    0.9455836651
H        2.0931959103    1.8862879968    0.3758012927
H        2.9019631503    0.6279980390    0.6279220103
O       -0.0775607968    1.1338979105   -1.6995804205
H        0.8415019877    0.8709947518   -1.6669258330
H       -0.5154444261    0.4705346774   -2.2341426585
O       -1.2540930373   -1.9041972024   -1.4966253387
H       -0.4068511980   -1.7322941646   -1.0486824758
H       -1.1363630187   -1.5659057400   -2.3811072777
O       -1.3543834826    2.1149606058    0.6126800704
H       -1.0183008244    1.7549586333   -0.2145628640
H       -2.1773077389    1.6476336337    0.7553729722
18   
Iteration 3 Energy -0.01827432
O        0.9745774984   -1.3382588422    0.1588482414
H        1.8371507420   -1.7462888935    0.2784666456
H        1.1588589760   -0.3900637645    0.1103263561
O       -0.9436265992   -1.1251540676    2.1452888119
H       -0.2471151397   -1.2592836649    1.4874880908
H       -1.0433469900   -0.1730036045    2.1841052999
O        1.8054474372    1.2447447801    1.3711523909
H        1.8783253793    1.9966566043    0.7782989064
H        2.6416718113    0.7865575627    1.2872183698
O        0.3013075811    1.0630439144   -1.7267483042
H        1.1933065665    0.8392413011   -1.4648731692
H        0.0260696588    0.3583749343   -2.3156774320
O       -0.6800217632   -2.1283216363   -1.7528558239
H       -0.1031308044   -1.8273770174   -1.0144042689
H       -0.2534787261   -1.8135995136   -2.5444468597
O       -1.6966162899    2.0564194316    0.0086919016
H       -0.9814201848    1.6912347914   -0.5303463117
H       -2.4409591534    1.4830776845   -0.1735328448
18   
Iteration 4 Energy -0.01982278
O        1.1709463255   -1.1767772964   -0.1285708659
H        2.0966358166   -1.4380348755   -0.1920356672
H        1.1926264954   -0.2063781713   -0.1596526254
O       -0.1653147761   -1.3380648007    2.3030285338
H        0.2373852440   -1.2864705129    1.4210407111
H       -0.4357727773   -0.4353936829    2.4803426721
O        1.8189831690    1.4673856803    1.0606934109
H        1.6615346631    2.2599574820    0.5395004234
H        2.6997395609    1.1843954120    0.8151048132
O       -0.2268368212    1.1588993948   -1.6769747875
H        0.7240946989    1.0746104078   -1.6272548346
H       -0.5258288902    0.4540673888   -2.2556675091
O       -0.6965184398   -2.3099021904   -1.6566523556
H       -0.0163492402   -1.8380408177   -1.1067850868
H       -0.5638024614   -1.9943240404   -2.5437325400
O       -1.7911856395    1.6443770691    0.6288925463
H       -1.2908389815    1.5339867691   -0.1962898374
H       -2.4624979463    0.9637067841    0.5820129990
18   
Iteration 5 Energy -0.02263875
O        0.8171652833   -1.4082134100   -0.2260673154
H        1.6412698922   -1.9039971236   -0.2686806275
H        1.0879135840   -0.4796707028   -0.1808442053
O       -0.6360083243   -1.2269026538    2.1372109262
H       -0.1843156997   -1.3491591554    1.2885687716
H       -0.6188071631   -0.2765412217    2.2658187290
O        2.0623001682    0.8748108022    1.1975579989
H        2.1480642209    1.7344447236    0.7766939320
H        2.8788624864    0.4201667797    0.9893154502
O        0.1379718959    1.3216888892   -1.5797774662
H        1.0371044453    0.9982453119   -1.5411792843
H       -0.3098790113    0.7691022701   -2.2251158641
O       -1.2129842043   -1.8421081980   -1.8953643364
H       -0.4544009446   -1.7202951585   -1.2813325574
H       -0.9087177773   -1.5054395038   -2.7323635808
O       -1.1967970106    1.9879973040    0.8126131578
H       -0.8216184798    1.7889943692   -0.0572407674
H       -2.0401233613    1.5348766779    0.8071870392
18   
Iteration 6 Energy -0.02524359
O        0.6430946874   -1.4844599862    0.0027764263
H        1.3728944069   -2.0826984208    0.1894818110
H        1.0152616930   -0.5948276591    0.0654182209
O       -1.2784670510   -0.6969171459    1.8326473292
H       -0.6370348808   -1.1249915623    1.2489146152
H       -1.0437494521    0.2325291678    1.7798519955
O        1.8207578963    0.7305721011    1.5738921098
H        2.1084569773    1.5601478479    1.1842220805
H        2.6165355240    0.1997035004    1.6208019464
O        0.6253864515    1.1985131185   -1.5571554156
H        1.4601683010    0.7922611768   -1.3254445486
H        0.2737075613    0.6556271621   -2.2677363889
O       -0.9421589668   -1.8529253663   -2.1065051519
H       -0.4071580625   -1.7645411856   -1.2928275915
H       -0.3434945735   -1.6353256740   -2.8155027252
O       -1.2361515821    2.1054704954    0.3595437857
H       -0.5729941706    1.7889770797   -0.2716387526
H       -2.0480547593    1.6908853504    0.0662602537
18   
Iteration 7 Energy -0.02532867
O        0.7502739699   -1.3820533880   -0.2021789486
H        1.4755508952   -1.9644540004    0.0396084674
H        1.0198156655   -0.5011977216    0.0815735372
O       -1.5814779669   -1.0051076264    1.2636573349
H       -0.7335874291   -1.2321582013    0.8607599813
H       -1.5003577287   -0.0645763805    1.4506856632
O        1.4156169537    0.5753033198    1.9137814793
H        1.6646380528    1.4952754445    1.7971583378
H        2.2460810498    0.1369860079    2.1044600547
O        0.6969867927    1.5066052633   -1.1896782972
H        1.5531368779    1.1663767187   -0.9295135409
H        0.5192732460    1.1130083983   -2.0488269430
O       -0.2909811254   -1.4991930291   -2.6439523786
H       -0.0320639417   -1.5370309739   -1.7087260386
H        0.4784967418   -1.1508133667   -3.0886349510
O       -1.4705613497    1.4455607818    0.5764492344
H       -0.6985618757    1.6162244002    0.0182661481
H       -2.0852788282    0.9992443534   -0.0078891404
18   
Iteration 8 Energy -0.02864809
O        0.8500973649   -1.3156833094   -0.3958030026
H        1.6641996617   -1.8210566947   -0.3204468005
H        1.0824232293   -0.4240712395   -0.1038629920
O       -1.1474593052   -1.4224461589    1.5599587587
H       -0.4316220866   -1.4064670195    0.9114392413
H       -1.1965072574   -0.5099285714    1.8662699895
O        1.6956195882    0.6251350680    1.6834688495
H        1.8293184677    1.5700765942    1.5776521008
H        2.5856057373    0.2709565465    1.7088684605
O        0.3592228827    1.6136706923   -1.2084327501
H        1.2676480174    1.3259516124   -1.1066178992
H        0.0693773897    1.2385085382   -2.0449563862
O       -0.6511833913   -1.4357647958   -2.5998650953
H       -0.1626894919   -1.4723432833   -1.7592073874
H       -0.0586997739   -0.9869195674   -3.1985075192
O       -1.3800994789    1.3614073477    0.9561692018
H       -0.8383148273    1.6265032873    0.1990217543
H       -2.1099367266    0.8804709531    0.5618514761
18   
Iteration 9 Energy -0.02921791
O        0.6797076775   -1.4603124365   -0.1065152394
H        1.3901729768   -2.0596269215    0.1395779265
H        1.0074721117   -0.5754074008    0.1098218589
O       -1.5373246955   -0.8743203417    1.4696530897
H       -0.7528463615   -1.2045239696    1.0105441184
H       -1.3600911411    0.0692026743    1.5629510570
O        1.5558656754    0.6217960976    1.8226986130
H        1.8378779062    1.5194728399    1.6301675512
H        2.3733558630    0.1636515605    2.0225681043
O        0.7383723628    1.3757455121   -1.3257609076
H        1.5712069577    0.9801888298   -1.0623377151
H        0.5052509227    0.9179347028   -2.1385279801
O       -0.5150660090   -1.6797904211   -2.4858844593
H       -0.1795906061   -1.6668337023   -1.5688585150
H        0.2275233952   -1.3994805407   -3.0143750593
O       -1.4064024136    1.8367704084    0.4287692655
H       -0.6142532567    1.7451272627   -0.1228818452
H       -2.0942313657    1.4084058462   -0.0846098635
18   
Iteration 10 Energy -0.03136491
O        0.6573540390   -1.4664508482   -0.1676222951
H        1.4133885970   -2.0447391608   -0.0283500800
H        1.0139177222   -0.5706248948   -0.0742623312
O       -0.9976446428   -0.7159446339    1.9450379188
H       -0.5126325329   -1.1292473998    1.2157744215
H       -0.7682316373    0.2188262899    1.8612287031
O        1.8962624172    0.7546875983    1.3804180180
H        2.1055395902    1.6543378259    1.1160549995
H        2.7574522485    0.3487334918    1.4907632697
O        0.4095124289    1.2841828223   -1.5276983852
H        1.2878921761    0.9087563264   -1.4478619254
H       -0.0046784455    0.7813175082   -2.2353644693
O       -1.0896539840   -1.9226882140   -2.1713247241
H       -0.4810438310   -1.7921294169   -1.4148529974
H       -0.5613747930   -1.7208673426   -2.9386236664
O       -1.1152107112    1.9072938776    0.7519423998
H       -0.6196495260    1.7345469358   -0.0634678000
H       -1.9641991154    1.4880092349    0.5952089436
18   
Iteration 11 Energy -0.03359318
O        0.9412518353   -1.2468846600   -0.5311754559
H        1.7534094925   -1.7401128202   -0.3807518044
H        1.0929962989   -0.4135581831   -0.0637396698
O       -1.2649866608   -1.6843994236    1.1923693431
H       -0.4802043945   -1.5054803429    0.6522000280
H       -1.4323522427   -0.8353040194    1.6321527988
O        1.4454616344    0.5142876475    1.8345704192
H        1.4375768726    1.4565927358    2.0238637844
H        2.3026050893    0.2641739736    2.1849967175
O        0.3411000504    1.7207803967   -0.9536192494
H        1.2649692044    1.4872281493   -0.8488141623
H        0.1127756482    1.4695254249   -1.8534948901
O       -0.1725801458   -1.1500121074   -3.0005317903
H        0.1148618099   -1.2978986850   -2.0737684166
H        0.5444095237   -0.6641001954   -3.3988299444
O       -1.4849525037    1.1113704377    1.0201165520
H       -0.9293285559    1.5562736923    0.3586271333
H       -2.1600129561    0.6755179794    0.4928286070
18   
Iteration 12 Energy -0.03851551
O        0.7764252669   -1.4303820607   -0.4201105131
H        1.4907024888   -2.0265901521   -0.1846129172
H        1.0433387032   -0.5871821411   -0.0391941692
O       -1.3087380949   -1.1359625077    1.5058288072
H       -0.6231119178   -1.3228523652    0.8545676531
H       -1.1832588992   -0.1973189509    1.7206141933
O        1.5918330352    0.6093748680    1.6230568401
H        1.5884842748    1.5547971733    1.7913280349
H        2.3700937290    0.3971231630    2.1434683637
O        0.4313714167    1.4656715975   -1.1754514455
H        1.3449924418    1.1725680074   -1.1324570474
H        0.1017835516    1.0856960514   -1.9960444700
O       -0.3870348432   -1.5274569619   -2.8821410078
H       -0.0833768807   -1.5818315453   -1.9670239313
H        0.4016197665   -1.2881437550   -3.3667371567
O       -1.3189500764    1.6293644858    0.9774375452
H       -0.7064524310    1.6862278021    0.2283700297
H       -2.1027215313    1.2148972917    0.6061011910
18   
Iteration 13 Energy -0.03886808
O        0.4111525971   -1.6043210556   -0.3345547013
H        0.9708531281   -2.3351786891   -0.0599494060
H        0.8696196778   -0.8230043184    0.0027642812
O       -1.0672671796   -0.5234747693    1.7471623907
H       -0.8525928255   -1.1051982588    1.0100788825
H       -0.4923755068    0.2400340018    1.6094103100
O        1.7451501904    0.3308348940    1.5148472400
H        1.8318677225    1.2885017657    1.5277318802
H        2.4803726225   -0.0385431591    2.0087232057
O        0.5902147478    1.2803752037   -1.2561958703
H        1.4171449690    0.7902950948   -1.2466588165
H        0.1193474995    0.9423039025   -2.0242003598
O       -0.8593352037   -1.4851699689   -2.7487925489
H       -0.5083965720   -1.6497891117   -1.8593317675
H       -0.0900346246   -1.5082531677   -3.3144347328
O       -0.9285582884    2.1341932139    0.9144240552
H       -0.3853839382    1.8479520801    0.1605146297
H       -1.8247790160    1.9364423423    0.6354613277
18   
Iteration 14 Energy -0.04208072
O        0.6228484129   -1.5518582590   -0.3530918662
H        1.2645391619   -2.2130937706   -0.0798446180
H        0.9823776622   -0.7270095594    0.0009590614
O       -1.1890466877   -0.8091331573    1.7070488357
H       -0.7045148364   -1.2215577709    0.9813357169
H       -0.8245601666    0.0838278168    1.7469667540
O        1.7018030649    0.5114697861    1.5275198573
H        1.6734069940    1.4726217208    1.5510376148
H        2.4708095504    0.2306781110    2.0282885862
O        0.4667294463    1.3423231421   -1.2441984381
H        1.3445618385    0.9513514218   -1.2310628828
H        0.0426912024    0.9627241566   -2.0202304031
O       -0.5915985776   -1.5696992692   -2.8015539112
H       -0.2682116054   -1.6659399404   -1.8917389419
H        0.2020386027   -1.4949736660   -3.3277181708
O       -1.1679378829    1.9634640203    0.9186195437
H       -0.5763310746    1.7929141023    0.1679691879
H       -2.0226051051    1.6598911148    0.6066940741
18   
Iteration 15 Energy -0.04370058
O        0.7022078244   -1.4720773238   -0.5123368070
H        1.4402892209   -2.0666736004   -0.3508853757
H        1.0181062497   -0.6255038955   -0.1678619045
O       -0.6610750100   -1.1012357930    1.9224166100
H       -0.4518172610   -1.3280126975    1.0082082781
H       -0.4213805817   -0.1674364524    1.9881604837
O        1.7977205921    0.6564351345    1.2824394851
H        1.6801223548    1.6041553988    1.4020070861
H        2.6394745986    0.4862743660    1.7110279720
O        0.1122965696    1.3971967448   -1.2504752375
H        1.0184283825    1.1086510166   -1.3824631722
H       -0.3798880430    0.9910253567   -1.9719510880
O       -0.8408563921   -1.5662252695   -2.7760814558
H       -0.3552216215   -1.6247796803   -1.9362801283
H       -0.1624416319   -1.3971824995   -3.4271834639
O       -1.0487452601    1.7445156514    1.2380108782
H       -0.7302876590    1.7104155895    0.3230647082
H       -1.9299323323    1.3684579537    1.1871831314
18   
Iteration 16 Energy -0.04476053
O        0.6387278294   -1.5444902574   -0.4029204337
H        1.2629653193   -2.2165637815   -0.1105601362
H        0.9778755220   -0.7284419836   -0.0019364713
O       -1.3539546137   -0.9124810371    1.5531007156
H       -0.7620675522   -1.2703712518    0.8781011445
H       -1.0302881924   -0.0103063988    1.6785675175
O        1.6255041678    0.4941843263    1.5463968220
H        1.5709500581    1.4497024590    1.6606265797
H        2.3489197072    0.2671167060    2.1347096615
O        0.4669211058    1.3574450881   -1.2137988127
H        1.3473984385    0.9757603075   -1.2136299283
H        0.0310572303    0.9814792282   -1.9868457617
O       -0.4211077097   -1.4559447459   -2.9253288730
H       -0.1765951480   -1.6040670303   -1.9886114434
H        0.4155248609   -1.3780837950   -3.3771856052
O       -1.0617709304    1.9181441286    1.0389878118
H       -0.5196821115    1.7791056916    0.2415066721
H       -1.9333779814    1.6158123462    0.7758205409
18   
Iteration 17 Energy -0.04877071
O        0.7739934190   -1.5223467592   -0.3899965941
H        1.3946589075   -2.1907075031   -0.0863141874
H        1.0449709870   -0.7079547923    0.0535347097
O       -1.2907953092   -1.0437811410    1.5604900229
H       -0.6708938587   -1.3265620331    0.8817838562
H       -1.0136429480   -0.1408478009    1.7531881105
O        1.5780939314    0.6009507441    1.5179520772
H        1.3355964218    1.5283464741    1.6193878097
H        2.2730303373    0.4818010316    2.1694050303
O        0.2953577911    1.2916122462   -1.2332720750
H        1.2085985075    0.9932525771   -1.2487061839
H       -0.1011618724    0.8288332182   -1.9806072256
O       -0.1423010157   -1.2974054303   -2.9519615985
H        0.0271663935   -1.5166723443   -2.0213480268
H        0.7299513433   -1.2364701988   -3.3377809665
O       -1.2397897706    1.8264811848    1.0090546661
H       -0.6907445248    1.6993693584    0.2152198060
H       -2.0850887400    1.4501011687    0.7569707692
18   
Iteration 18 Energy -0.05275076
O        0.8842491569   -1.5120467694   -0.3648593523
H        1.5188866647   -2.1662238037   -0.0574878151
H        1.1124719296   -0.6965049422    0.1003467976
O       -1.1246370679   -1.1106051336    1.6802905428
H       -0.5530034164   -1.3576399558    0.9474130902
H       -0.8535263123   -0.2108075710    1.8823404929
O        1.5806301624    0.7363721029    1.3789072316
H        1.1475923410    1.5950483118    1.4637831982
H        2.2467950297    0.7681560718    2.0695570318
O        0.0627535180    1.1163329687   -1.3175784000
H        0.9966093955    0.8970354031   -1.3835763782
H       -0.3429786189    0.5452108638   -1.9842538313
O       -0.0385812643   -1.1343561473   -2.9131587516
H        0.1341574975   -1.4336400924   -2.0035188430
H        0.8282933971   -1.1011409632   -3.3156096598
O       -1.2538869115    1.8052240405    1.0128142393
H       -0.8112225883    1.5995940741    0.1702256832
H       -2.1076029127    1.3779915420    0.9213647238
18   
Iteration 19 Energy -0.05568382
O        0.8521961655   -1.5825051737   -0.3759202824
H        1.4867863354   -2.2142509533   -0.0244490417
H        1.0763588973   -0.7543879376    0.0779050858
O       -1.0702023272   -0.9875490441    1.6967779945
H       -0.5676369092   -1.3326320015    0.9493281662
H       -0.7351598070   -0.0948392859    1.8070187199
O        1.5274690888    0.6786905477    1.2774738487
H        0.9902304866    1.4785229538    1.3568404489
H        2.1706269900    0.7761764306    1.9837877515
O       -0.0678215145    1.0781454681   -1.3490955276
H        0.8495813763    0.8138032912   -1.4677967278
H       -0.5318810228    0.4978413367   -1.9758355940
O       -0.1108620905   -1.2878691305   -2.9344666224
H        0.0865664781   -1.5484257600   -2.0167515841
H        0.7407309875   -1.3273733648   -3.3715394859
O       -0.8066943899    2.0346461850    1.0879763576
H       -0.7746252925    1.6899457774    0.1815068009
H       -1.6886634518    1.8000606606    1.3842396920
18   
Iteration 20 Energy -0.05657293
O        0.7784324969   -1.7777963991   -0.3134684605
H        1.3904610415   -2.4312129329    0.0379365238
H        1.1173044890   -0.9446008438    0.0536209574
O       -0.9231370677   -0.9690148763    1.7958250888
H       -0.5038698457   -1.3897676027    1.0365834906
H       -0.4939378419   -0.1104008656    1.8285871699
O        1.6831239408    0.5026403389    1.1664537700
H        1.2168024810    1.3550931879    1.2769411852
H        2.3762420830    0.5732078284    1.8269675630
O       -0.2809504060    1.5007772111   -1.4757843087
H        0.5444268108    1.1142828478   -1.7763225467
H       -0.9333809871    1.1109378819   -2.0787890009
O       -0.3673844790   -1.5824817240   -2.8029260331
H       -0.1178438797   -1.7909604630   -1.8847683736
H        0.4259553596   -1.7725314866   -3.3043100924
O       -0.4930981785    2.2135250961    1.1604331757
H       -0.6154113541    1.9943834005    0.2157233434
H       -1.3767346630    2.1219194014    1.5242965483
18   
Iteration 21 Energy -0.05940540
O        0.6955453287   -1.7467368942   -0.3632246737
H        1.2263408676   -2.4951071007   -0.0756308671
H        1.1125656073   -0.9752715583    0.0531109616
O       -0.9107445647   -0.9071449505    1.8022605856
H       -0.5404345794   -1.3329440433    1.0197139228
H       -0.3952129318   -0.0989586627    1.8656554309
O        1.7565333456    0.3828650999    1.2151899915
H        1.2837946110    1.2352790345    1.3155745330
H        2.4440431840    0.4188813107    1.8842183584
O       -0.2815748596    1.3874159270   -1.4681922916
H        0.5284000094    0.9878313034   -1.7904103239
H       -0.9574366273    1.0099921980   -2.0468126360
O       -0.4116881462   -1.2030361513   -2.8161175133
H       -0.1927511631   -1.5192559625   -1.9212807104
H        0.3495181868   -1.4561209603   -3.3375490872
O       -0.4208886957    2.1091246517    1.1798029788
H       -0.5501795125    1.8864887768    0.2334037896
H       -1.3088300602    2.0346979816    1.5372875510
18   
Iteration 22 Energy -0.05250589
O        0.4726705744   -1.6787484007   -0.4028156749
H        0.8881287328   -2.4966555820   -0.1160796655
H        1.1100160122   -1.0601514996   -0.0088778310
O       -0.8362342731   -0.6271121839    1.7641995613
H       -0.5832264957   -1.1097902891    0.9658186127
H       -0.1531952808    0.0459469480    1.8341643456
O        1.9743089097    0.1518710053    1.1308034077
H        1.5740306341    1.0400175465    1.2213080103
H        2.6824893786    0.1366904483    1.7787995413
O       -0.4245793718    1.1935206580   -1.3811309930
H        0.2699594248    0.6859807874   -1.8040569661
H       -1.2177256507    0.8272926251   -1.7848152211
O       -0.6221445461   -0.8527068362   -2.7836122068
H       -0.4300930846   -1.2208596629   -1.9012089494
H       -0.0364130826   -1.3430499768   -3.3590712617
O       -0.0421402907    2.0799481862    1.1940511163
H       -0.3124919253    1.8056181810    0.2915375803
H       -0.8863596652    2.1401880456    1.6479865939
18   
Iteration 23 Energy -0.05927210
O        0.6024445270   -1.7024527626   -0.3967489307
H        1.0900732287   -2.4797351107   -0.1101595661
H        1.1112054339   -0.9933923944    0.0300600149
O       -0.8967175771   -0.7912400841    1.7832301461
H       -0.5718695498   -1.2343671260    0.9884428857
H       -0.3073499808   -0.0363608775    1.8651532708
O        1.8469138006    0.2886562032    1.2026123552
H        1.3969047703    1.1501511132    1.2988501401
H        2.5375408925    0.3039454979    1.8693239441
O       -0.3241025030    1.2728144521   -1.4316772184
H        0.4484991642    0.8338360395   -1.7926399325
H       -1.0426197721    0.8885152167   -1.9470375341
O       -0.4921616493   -1.0098479503   -2.8195176031
H       -0.2880941223   -1.3609676857   -1.9331029532
H        0.2149105376   -1.3550571927   -3.3636711235
O       -0.2827050921    2.0741958404    1.1957214092
H       -0.4553131655    1.8247194326    0.2643611798
H       -1.1605589429    2.0445873882    1.5837995157
18   
Iteration 24 Energy -0.06043341
O        0.6101284098   -1.7291365069   -0.3926357205
H        1.1057320234   -2.4974786941   -0.0957429723
H        1.1135716088   -1.0094142921    0.0246085746
O       -0.8957165283   -0.8037551825    1.7764455419
H       -0.5679825819   -1.2527413947    0.9859142987
H       -0.3115619667   -0.0440002303    1.8506849750
O        1.8439622674    0.2845408096    1.1875962645
H        1.4048779471    1.1511212289    1.2910586254
H        2.5367958872    0.2990303040    1.8520501095
O       -0.3437120527    1.3393254416   -1.4249738198
H        0.4155372484    0.8887416880   -1.7999869838
H       -1.0754857544    0.9751937920   -1.9364641494
O       -0.4984141983   -1.0926434072   -2.8253680546
H       -0.2874012741   -1.4246652071   -1.9330197852
H        0.2094936856   -1.4421095865   -3.3658620160
O       -0.2573014087    2.1086303857    1.2091684117
H       -0.4438089386    1.8734938402    0.2776973028
H       -1.1317143740    2.0938670113    1.6058293976
18   
Iteration 25 Energy -0.06145368
O        0.6118314605   -1.7689425501   -0.4623349301
H        1.0456138972   -2.5906942202   -0.2153550811
H        1.1106489147   -1.0724228356    0.0008178697
O       -0.9503425997   -0.8746613209    1.7003181832
H       -0.6088631075   -1.3088597552    0.9062310103
H       -0.3528245687   -0.1299707155    1.8137774160
O        1.8364138286    0.1687509210    1.2097140642
H        1.4237296854    1.0425037587    1.3431640142
H        2.5127827837    0.1545493919    1.8910780245
O       -0.3969568511    1.4608458070   -1.3511318004
H        0.3190757931    0.9862265576   -1.7795983694
H       -1.1648912375    1.1574009850   -1.8501605098
O       -0.3940733826   -0.9483164778   -2.8853631420
H       -0.2232536391   -1.3362730293   -2.0068263040
H        0.2965209588   -1.3218959588   -3.4330917403
O       -0.1861809487    2.0863528178    1.3112029700
H       -0.3973112171    1.9055325816    0.3743083312
H       -1.0549197702    2.1078740427    1.7202499938
18   
Iteration 26 Energy -0.06248243
O        0.6097209278   -1.7802683767   -0.5000931553
H        1.0242694567   -2.6110046955   -0.2504160304
H        1.1144031650   -1.1073551834   -0.0086816846
O       -0.9834361803   -0.8729108923    1.6436176186
H       -0.6383876370   -1.3070302350    0.8506225672
H       -0.3636636611   -0.1509198681    1.7815815758
O        1.8460328618    0.0871888935    1.2284731809
H        1.4459741858    0.9645213647    1.3688690132
H        2.5093615730    0.0469809439    1.9215521585
O       -0.4665464914    1.5259487893   -1.3050035395
H        0.2013049816    1.0247922827   -1.7809882610
H       -1.2713330764    1.2749988263   -1.7717129414
O       -0.3210687882   -0.8962700282   -2.9301790515
H       -0.1783681860   -1.3009800038   -2.0544616861
H        0.3592385526   -1.2942680214   -3.4738120930
O       -0.1211405547    2.0695462317    1.3608336497
H       -0.3571488881    1.9168941817    0.4246849604
H       -0.9822122412    2.1281357906    1.7821137185
18   
Iteration 27 Energy -0.06381744
O        0.5738695742   -1.8031476895   -0.5583909093
H        0.9447342035   -2.6575804565   -0.3208651241
H        1.1130898076   -1.1805775151   -0.0385637142
O       -1.0230214163   -0.8886958229    1.5624284285
H       -0.6795205195   -1.3171639835    0.7665330271
H       -0.3708720259   -0.2048558010    1.7385897646
O        1.8792575007   -0.0647407776    1.2270068757
H        1.5100465197    0.8223292892    1.3823775304
H        2.5328812551   -0.1489177218    1.9253342164
O       -0.5534754562    1.6500995207   -1.2223388134
H        0.0140937746    1.1081335641   -1.7824440257
H       -1.4168464599    1.5086017356   -1.6215356290
O       -0.2718292797   -0.7813571158   -2.9622873129
H       -0.1625989814   -1.2222767853   -2.1001393205
H        0.3721637582   -1.2188357922   -3.5199872639
O        0.0284564753    2.0311177720    1.4299314561
H       -0.2543084792    1.9306265993    0.4986731016
H       -0.8091202507    2.1552409804    1.8826777126
18   
Iteration 28 Energy -0.06573314
O        0.5230296153   -1.8020309858   -0.6882731148
H        0.8182410791   -2.6951350974   -0.4918493117
H        1.1060484073   -1.2815500178   -0.1056194308
O       -1.0935404368   -0.8679852734    1.4067151032
H       -0.7542239154   -1.2842949748    0.6025139798
H       -0.3875518071   -0.2657746932    1.6544865466
O        1.9160146589   -0.3508616057    1.2227776479
H        1.5639296305    0.5343051113    1.4067047469
H        2.5468466019   -0.5045780965    1.9300221835
O       -0.6295817839    1.8297875252   -1.0419534694
H       -0.2211297395    1.2737605684   -1.7253965941
H       -1.5426765635    1.8565899200   -1.3304831152
O       -0.1837878222   -0.4914452576   -2.9945066591
H       -0.1158993035   -1.0096813649   -2.1723171887
H        0.3582237702   -0.9847066210   -3.6113203797
O        0.2112837088    1.8497729605    1.5510650547
H       -0.1066518517    1.8526304166    0.6251683807
H       -0.5815742484    2.0591974862    2.0492656201
18   
Iteration 29 Energy -0.06688383
O        0.3737768205   -1.8113630646   -0.5534501839
H        0.6020906277   -2.7207938199   -0.3439304562
H        1.1171851147   -1.3437016677   -0.1284783202
O       -0.9788291330   -0.7492703696    1.4995008205
H       -0.7048685529   -1.2207079006    0.7013083955
H       -0.2397219449   -0.1600331527    1.6688176467
O        2.0875408686   -0.3997437843    1.0422369383
H        1.7646838105    0.5031577343    1.1909670092
H        2.7936434713   -0.5170453455    1.6820276805
O       -0.6044670610    1.7973298452   -1.0858625576
H       -0.3045340919    1.1843228557   -1.7799865156
H       -1.5423195417    1.8667551154   -1.2664387882