18   
Iteration 0 Energy -449.79401235
O        0.8556237138   -1.3818976259    0.3173538155
H        1.6746796629   -1.8471219649    0.4856375088
H        1.1172361800   -0.4682733188    0.2056811804
O       -1.0982625284   -0.8580828910    2.1724631078
H       -0.4029651704   -1.1456966573    1.5813109035
H       -1.0847470506    0.0967976121    2.1121133005
O        1.8638563656    1.2197718722    1.3326640992
H        2.0097975347    1.8822901978    0.6578398910
H        2.6411662827    0.6630381517    1.2943569165
O        0.4358641627    0.8588226435   -1.7984082642
H        1.2948367559    0.5941611975   -1.4701680912
H        0.1355146577    0.1111827990   -2.3145955512
O       -0.8006621036   -2.0904305554   -1.5724738604
H       -0.2202463070   -1.8291579755   -0.8579929211
H       -0.3279502699   -1.8451926104   -2.3674678605
O       -1.4962593612    2.2671514257   -0.3294297749
H       -0.8465067643    1.6935133613   -0.7348841125
H       -2.3244822432    1.7978584481   -0.4265572767
18   
Iteration 1 Energy -449.81769938
O        0.8853936641   -1.3064956360    0.3827109385
H        1.7007277980   -1.8558197556    0.4977723050
H        1.2210011052   -0.3778361657    0.4095673694
O       -1.1537121951   -0.8693228883    2.2379937089
H       -0.4428554748   -1.1590207887    1.6109307795
H       -1.0706585498    0.1118970047    2.1178223427
O        1.8437530123    1.1326115315    1.2961659099
H        1.9880823877    1.8638697695    0.6389082898
H        2.7475323429    0.7209827442    1.2780403528
O        0.4195184168    0.9271762124   -1.7914166824
H        1.3306225971    0.6074265014   -1.5672626105
H        0.0929018965    0.1470787956   -2.3071819103
O       -0.8951520281   -2.1572751262   -1.6671784958
H       -0.3062338904   -1.9292220954   -0.8990283813
H       -0.3025178503   -1.9073694141   -2.4231764300
O       -1.4825176867    2.2968812742   -0.3099080266
H       -0.8400764615    1.7148775445   -0.7942141938
H       -2.3081722590    1.7582036670   -0.4236816161
18   
Iteration 2 Energy -449.82580352
O        0.8492230774   -1.2713309410    0.3613025858
H        1.6681352181   -1.8216726594    0.4679476118
H        1.1931814309   -0.3681903257    0.5977479815
O       -1.1661982553   -0.8676971652    2.2635080839
H       -0.4630229122   -1.1916879962    1.6356271919
H       -1.0768428395    0.1171873090    2.1338580736
O        1.8971400942    1.0181272571    1.2027912228
H        1.9260001114    1.8163451653    0.6051199694
H        2.8692284845    0.8145665738    1.2872242655
O        0.4277197847    0.9377381768   -1.8242661956
H        1.3497220422    0.6100009114   -1.6429695370
H        0.0480468885    0.1704538927   -2.3282237882
O       -0.8948879723   -2.1650032804   -1.6647449936
H       -0.3124634465   -1.9173583921   -0.8919448555
H       -0.2706369247   -1.9880475334   -2.4237679396
O       -1.5004449408    2.3051083562   -0.2815995595
H       -0.8151073956    1.7927699472   -0.7930815416
H       -2.3011531627    1.7273314215   -0.4176696319
18   
Iteration 3 Energy -449.82842531
O        0.8346673556   -1.2014799897    0.3352792337
H        1.5879941079   -1.8211328550    0.4898441446
H        1.1913789796   -0.3424831667    0.7011846401
O       -1.1792721054   -0.8846704908    2.2929781550
H       -0.5087566211   -1.2179248094    1.6430800138
H       -1.0801541712    0.0914512100    2.1506275328
O        1.9926621350    0.8951581352    1.1113575879
H        1.8361932453    1.7102627445    0.5753656188
H        2.9600084121    0.9597422857    1.2992894076
O        0.4139739401    0.9683623377   -1.8499588159
H        1.3208060538    0.5949130877   -1.7233691966
H       -0.0151180650    0.2181740801   -2.3267798917
O       -0.8732151545   -2.1461060858   -1.6508254909
H       -0.3071674002   -1.8458657173   -0.8921410541
H       -0.2157607479   -2.1064631106   -2.3937814691
O       -1.4837176121    2.3007582487   -0.2555983390
H       -0.7948213757    1.8499375545   -0.8065315780
H       -2.2520610933    1.6960111911   -0.4131598770
18   
Iteration 4 Energy -449.83065559
O        0.7854688157   -1.2653292642    0.2970955019
H        1.4878867048   -1.9072246627    0.5324071091
H        1.1923803987   -0.4181521268    0.6245298970
O       -1.1712233778   -0.9085892534    2.2937726211
H       -0.5295829348   -1.2227790101    1.6145525529
H       -1.0931412228    0.0655147941    2.1674932733
O        2.0594970637    0.9523540882    1.1120883276
H        1.8173054734    1.7459757317    0.5961666590
H        3.0055921337    1.0786671698    1.3274653378
O        0.3949810067    0.9792644862   -1.8719492178
H        1.2867949446    0.5818302366   -1.7546491259
H       -0.0724952356    0.2441434078   -2.3252134969
O       -0.8393126641   -2.1052155526   -1.6307197069
H       -0.2842795269   -1.7652085233   -0.8886439866
H       -0.1693746941   -2.1819538607   -2.3501956917
O       -1.4569252526    2.2881388986   -0.2400333498
H       -0.7703659344    1.8742778288   -0.8119064512
H       -2.2155655329    1.6829346966   -0.4053983429
18   
Iteration 5 Energy -449.83322248
O        0.8120264434   -1.2493305057    0.3404628795
H        1.4443100342   -1.9511774066    0.6021814498
H        1.3052395519   -0.4293637879    0.5844031517
O       -1.1622264578   -0.9250309614    2.2859205689
H       -0.5406939890   -1.2208967872    1.5799635816
H       -1.1114776477    0.0546066816    2.1845959979
O        2.0213046788    0.9692404059    1.0983568315
H        1.8185006515    1.8007741995    0.6239385485
H        2.9732835144    1.0731754988    1.3127772016
O        0.3713595570    0.9683983439   -1.8928147952
H        1.2653300351    0.5790137996   -1.7550980930
H       -0.1132574691    0.2332279823   -2.3313005504
O       -0.8368776725   -2.0721616079   -1.6652367444
H       -0.3018578658   -1.7391652317   -0.9056344942
H       -0.1377558154   -2.2113334173   -2.3456519284
O       -1.4336507531    2.2781639364   -0.2279733109
H       -0.7442434474    1.8769028387   -0.8070453694
H       -2.2016702295    1.6836105912   -0.3949832592
18   
Iteration 6 Energy -449.83617485
O        0.8170729245   -1.2607159792    0.3739450841
H        1.3945213218   -1.9905458253    0.6906360913
H        1.3370823025   -0.4458413616    0.5795002240
O       -1.1444060726   -0.9597664075    2.2761383395
H       -0.5354631614   -1.1740663681    1.5277189483
H       -1.1497761345    0.0266612706    2.2166499515
O        2.0280756214    0.9592901713    1.0519215555
H        1.7819917001    1.8242303555    0.6490151873
H        2.9710030090    1.1162884677    1.2946842647
O        0.3148715293    0.9672563007   -1.9330486461
H        1.2043846370    0.5658354914   -1.7856158784
H       -0.1809751410    0.2125326206   -2.3293633305
O       -0.8028242437   -1.9876745543   -1.7048542921
H       -0.2777783156   -1.6840262211   -0.9227444216
H       -0.0799582211   -2.2744902550   -2.3145678819
O       -1.3807717181    2.2677715494   -0.1982754700
H       -0.7117523944    1.8723180149   -0.8092643520
H       -2.1576589944    1.6836019586   -0.3756215608
18   
Iteration 7 Energy -449.83895363
O        0.8407901202   -1.3049232472    0.4690354388
H        1.1332942400   -2.0615637239    1.0344336347
H        1.5000967861   -0.5736925674    0.5906338548
O       -1.0738262705   -1.0786596748    2.2347002543
H       -0.5667423911   -0.9970759859    1.3799245255
H       -1.3152772245   -0.1218353507    2.3609250583
O        2.1283612381    0.9755580803    0.8089702816
H        1.5808666808    1.8107702323    0.7294015705
H        2.9395075313    1.3457801927    1.2572694398
O        0.0300660372    0.9053560156   -2.1498104500
H        0.9129118102    0.4967350732   -1.9492591063
H       -0.5131075470    0.0827218334   -2.2821146892
O       -0.4315006973   -1.5946137445   -1.9259207689
H       -0.0626319053   -1.4375564357   -1.0118844505
H       -0.0296660841   -2.4850439319   -2.1172841242
O       -1.1183821106    2.2002434133   -0.0613683696
H       -0.5725855338    1.8606779474   -0.8246200130
H       -1.9545433559    1.6958134815   -0.2561998356
18   
Iteration 8 Energy -449.84458515
O        0.8373258182   -1.2763648509    0.3945914171
H        1.3132618812   -2.0115176581    0.8485499097
H        1.3893695184   -0.4748776503    0.5873465093
O       -1.1388250876   -1.0126283403    2.2806480610
H       -0.5465702482   -1.0875036338    1.4874125206
H       -1.2717486118   -0.0305273380    2.2975599904
O        2.0741756551    0.9315521170    0.9055290933
H        1.6506975107    1.8067898349    0.7044856830
H        2.9581154979    1.2208023319    1.2487747808
O        0.1452954873    0.9710564146   -2.0600728970
H        1.0378947897    0.5843091451   -1.8779342996
H       -0.3271154591    0.1418165384   -2.3250134410
O       -0.6281754322   -1.7575374951   -1.7783581099
H       -0.1424269589   -1.6350412335   -0.9204583535
H       -0.0329214888   -2.4045744003   -2.2360994306
O       -1.2028466733    2.2195173615   -0.1335395600
H       -0.6447768494    1.8200871402   -0.8528482572
H       -2.0430993124    1.7133200397   -0.2837339430
18   
Iteration 9 Energy -449.85006224
O        0.8500053669   -1.3052331100    0.4212453063
H        1.3380804320   -2.0033337539    0.9168283168
H        1.3726261764   -0.4747036217    0.5719008131
O       -1.1552681064   -1.0183418665    2.2932588818
H       -0.5598232056   -1.0675753283    1.5021139137
H       -1.3218408058   -0.0427773895    2.3144360729
O        2.0887834793    0.9331319384    0.8414264897
H        1.5906221763    1.7822974135    0.7292939268
H        2.9426411892    1.2497029187    1.2285341705
O        0.0685538867    0.9312732350   -2.1361980100
H        0.9903450467    0.6405682671   -1.9271636187
H       -0.3450590931    0.0448531122   -2.2980550066
O       -0.5409487900   -1.6496385770   -1.8042036265
H       -0.0784671585   -1.6196303537   -0.9256915824
H       -0.0628651997   -2.3998881635   -2.2382423317
O       -1.1166495704    2.1890559229   -0.1085185939
H       -0.6362108900    1.7836630146   -0.8794432037
H       -1.9968991339    1.7452570311   -0.2146891739
18   
Iteration 10 Energy -449.77002133
O        0.8519802201   -1.3827779371    0.5484037573
H        1.4295649183   -1.9395325606    1.1117525421
H        1.3086369078   -0.4986888066    0.5646084624
O       -1.2228202974   -1.0164937455    2.3403334125
H       -0.5726045740   -1.0509446168    1.5987419503
H       -1.4867086906   -0.0671155441    2.3126935501
O        2.0571858947    0.9939890772    0.5929061322
H        1.3577804542    1.6533045154    0.7781701840
H        2.8183704828    1.2886122991    1.1366332361
O       -0.2147081614    0.6499636107   -2.3379821771
H        0.7359856655    0.8934666898   -2.2649765880
H       -0.1846789526   -0.2692759342   -1.9458051070
O       -0.1903777295   -1.3079197791   -1.8498356964
H        0.1104068707   -1.5490309953   -0.9320192795
H       -0.2042340082   -2.1696237379   -2.3234381617
O       -0.7536825133    2.0003585061   -0.1032222682
H       -0.7003070823    1.6244105548   -1.0245405040
H       -1.7121934456    1.8659852334    0.0843841993
18   
Iteration 11 Energy -449.84363162
O        0.8417526481   -1.3464388410    0.4904915159
H        1.4081983305   -1.9650713066    0.9992796570
H        1.3175607186   -0.4771228662    0.5708203205
O       -1.1930488363   -1.0077081614    2.3177613970
H       -0.5573401401   -1.0795565391    1.5652373558
H       -1.3924696099   -0.0416426482    2.2951467042
O        2.0620143669    0.9493321028    0.7228568615
H        1.4769215928    1.7356885395    0.7618219530
H        2.8825578828    1.2477195671    1.1726977253
O       -0.0673507787    0.7780791782   -2.2406296166
H        0.9037221362    0.8077190803   -2.0774793698
H       -0.2463585768   -0.1912854767   -2.0991667477
O       -0.4008351260   -1.4512689270   -1.8268171871
H        0.0199644236   -1.5742993881   -0.9346472191
H       -0.1348683892   -2.2719841508   -2.3025260421
O       -0.9393940601    2.1020352353   -0.1023966606
H       -0.6689626546    1.6832977923   -0.9627799306
H       -1.8844522304    1.8211872591   -0.0628483308
18   
Iteration 12 Energy -449.85565435
O        0.8233445656   -1.3402613561    0.4805313882
H        1.3777015217   -1.9770102586    0.9791206222
H        1.3161000672   -0.4812440914    0.5738886059
O       -1.1864274664   -1.0084455048    2.3149175885
H       -0.5522149928   -1.0969553084    1.5623819268
H       -1.3768208295   -0.0405537869    2.2840764442
O        2.0688086236    0.9519269683    0.7346090689
H        1.4805278413    1.7351746846    0.7444857819
H        2.8835169579    1.2591155770    1.1868181505
O       -0.0084977493    0.9196299796   -2.2491661176
H        0.9551251116    0.8322139230   -2.0718132892
H       -0.3132321012   -0.0270118185   -2.1785559323
O       -0.4321910647   -1.5890957922   -1.7771972448
H        0.0078529591   -1.6453398855   -0.8899729244
H       -0.1160887736   -2.3790554330   -2.2665787840
O       -0.9539419848    2.1049683783   -0.1035559432
H       -0.6503735858    1.6894287532   -0.9542721364
H       -1.8955699304    1.8111945851   -0.0828922712
18   
Iteration 13 Energy -449.85698944
O        0.8171113074   -1.3325878208    0.4918090037
H        1.4016084318   -1.9697157599    0.9571739585
H        1.3100577437   -0.4726286040    0.5774690924
O       -1.2009466804   -0.9978730626    2.3265559425
H       -0.5430260956   -1.1184631324    1.5977175795
H       -1.3778932588   -0.0292018460    2.2534090220
O        2.0089758142    0.9350240919    0.7253276092
H        1.4437932668    1.7386118238    0.7418185474
H        2.8378445604    1.2295019638    1.1648955441
O       -0.0333155478    0.9003166604   -2.2637628988
H        0.9356196115    0.8841606859   -2.0841104321
H       -0.2462944380   -0.0716453957   -2.2353510907
O       -0.4438906534   -1.5732149999   -1.7298774961
H        0.0289596419   -1.6833986115   -0.8667113349
H       -0.1132185828   -2.3342233734   -2.2569016077
O       -0.9185047703    2.0936695768   -0.0875901460
H       -0.6126803699    1.7035329750   -0.9508140375
H       -1.8665774111    1.8168174449   -0.0742298243
18   
Iteration 14 Energy -449.86048179
O        0.8114895739   -1.3566937245    0.5362206590
H        1.4333849966   -1.9758257572    0.9751940526
H        1.2925806670   -0.4875412595    0.5958013148
O       -1.2295722908   -0.9876662438    2.3505693545
H       -0.5483626412   -1.1567406875    1.6529814359
H       -1.4001279822   -0.0244969392    2.2171455753
O        1.9562197444    0.9389148788    0.6615735719
H        1.3421326203    1.7041214383    0.7190190300
H        2.7555188277    1.2457850806    1.1454027725
O       -0.0711762613    0.9053909795   -2.2994819807
H        0.9071693499    0.9629036152   -2.1901616868
H       -0.2175597281   -0.0749334564   -2.1911893837
O       -0.4115788174   -1.5499906505   -1.7286395386
H        0.0581998090   -1.6413130320   -0.8606179470
H       -0.1034144404   -2.3377041529   -2.2282457813
O       -0.7977001115    2.0384122049   -0.0777698998
H       -0.5872177517    1.6771858578   -0.9811488399
H       -1.7623601538    1.8388796918   -0.0098276253
18   
Iteration 15 Energy -449.86603398
O        0.8025579794   -1.3778577731    0.5909183079
H        1.4652327862   -1.9930432698    0.9747907161
H        1.2687777787   -0.4977344914    0.6268495529
O       -1.2599829128   -0.9775703683    2.3765800599
H       -0.5560142385   -1.2003936322    1.7168734347
H       -1.4174407069   -0.0254846229    2.1647551975
O        1.8701825278    0.9432727585    0.5755621985
H        1.1760435376    1.6375643282    0.6589118100
H        2.6125551175    1.2811169257    1.1274780544
O       -0.1001698608    0.9094592100   -2.3400577206
H        0.8809559264    1.0144787463   -2.3419155867
H       -0.2112993900   -0.0667101453   -2.1413199215
O       -0.3652520113   -1.5089598104   -1.7107865696
H        0.0852430746   -1.5729966096   -0.8254410482
H       -0.0656716517   -2.3122840441   -2.1939406498
O       -0.6213947318    1.9641351836   -0.0601807268
H       -0.5432378900    1.6322209267   -0.9964382048
H       -1.5934625989    1.8694811833    0.0841878312
18   
Iteration 16 Energy -449.86953209
O        0.7957782366   -1.3911034064    0.6582782161
H        1.4957097371   -2.0185801629    0.9509023384
H        1.2431974051   -0.4962963681    0.6689929355
O       -1.2855971072   -0.9674991282    2.3996952627
H       -0.5643092863   -1.2503843171    1.7814448603
H       -1.4212442734   -0.0341585542    2.0981505068
O        1.7489970341    0.9433282253    0.4838242480
H        0.9385922393    1.5137540371    0.5252991337
H        2.3822952612    1.3419458695    1.1277585535
O       -0.1197656755    0.9196121484   -2.3614510360
H        0.8490536166    1.0228877413   -2.5192531746
H       -0.2222659443   -0.0445097378   -2.0745313611
O       -0.3260291868   -1.4597199068   -1.6881395853
H        0.0904101418   -1.4583669027   -0.7742114934
H        0.0111592940   -2.2631850537   -2.1529199336
O       -0.3890315978    1.8797632543   -0.0407544811
H       -0.4517851688    1.5796798710   -0.9918414631
H       -1.3475462244    1.9015294125    0.1955848725
18   
Iteration 17 Energy -449.85454139
O        0.8005156526   -1.3147573839    0.6181867617
H        1.4441988389   -2.0348714109    0.8355756841
H        1.2701848306   -0.4218408781    0.6679732766
O       -1.2192668563   -0.9892056959    2.3614489039
H       -0.5442733894   -1.2371918036    1.6782125917
H       -1.3369948516   -0.0349582475    2.1038296733
O        1.8100563358    0.8441497435    0.5934824303
H        0.9537400442    1.3339941505    0.3860612230
H        2.3262557361    1.4018066954    1.2243285319
O        0.0052707000    0.9152780524   -2.2220174127
H        0.9560416036    0.7746439553   -2.4371477501
H       -0.3868122811   -0.0044743639   -2.0076879972
O       -0.4049964022   -1.4808295782   -1.6828214768
H       -0.0617007952   -1.3755970314   -0.7270012410
H        0.1382813075   -2.1446216949   -2.1885174642
O       -0.4803537707    2.0115565794   -0.0679778990
H       -0.3942041888    1.5324755636   -0.9473542504
H       -1.4483393070    1.9431221771    0.0982672858
18   
Iteration 18 Energy -449.86983472
O        0.7951289677   -1.3469298028    0.6376795078
H        1.4613194594   -2.0251308622    0.9042182417
H        1.2628665395   -0.4555814260    0.6615377287
O       -1.2538256405   -0.9816969932    2.3828603727
H       -0.5531683600   -1.2413175520    1.7308279484
H       -1.3878539016   -0.0387003178    2.1027378728
O        1.8204213432    0.8756257849    0.5432642537
H        0.9705744069    1.3990713577    0.4541402291
H        2.3768339951    1.3610748331    1.1961596542
O       -0.0768063573    0.9300790883   -2.2952803406
H        0.8915561372    0.9225781800   -2.4798150724
H       -0.3073156736   -0.0294906107   -2.0496325247
O       -0.3531453543   -1.4655124826   -1.6730824726
H        0.0376366235   -1.4295380813   -0.7398744125
H        0.0670501506   -2.2154771911   -2.1664826735
O       -0.4623888561    1.9584054925   -0.0687237767
H       -0.4377041864    1.5706823187   -0.9936115937
H       -1.4235689581    1.9305485830    0.1399119966
18   
Iteration 19 Energy -449.87636212
O        0.7806128725   -1.3552293095    0.6397490117
H        1.4427680508   -2.0316620472    0.9013134384
H        1.2889198303   -0.4847505329    0.6761413257
O       -1.2567692606   -0.9789363154    2.3843978122
H       -0.5450106310   -1.2448058292    1.7470806332
H       -1.3992799657   -0.0419393591    2.0986837202
O        1.8153024610    0.8814928896    0.5338552608
H        0.9884045376    1.4417774839    0.4740685464
H        2.3728258894    1.3354180460    1.2005479863
O       -0.1121218793    0.9176492653   -2.3076452980
H        0.8556681531    0.9653371200   -2.4876005781
H       -0.2557893983   -0.0575739897   -2.0868284278
O       -0.3517847763   -1.4577082381   -1.6395541029
H        0.0782154492   -1.4856930175   -0.7326889414
H        0.0542833470   -2.1997749113   -2.1442384752
O       -0.4640013026    1.9659692274   -0.0889849478
H       -0.4510278946    1.6298632756   -1.0330346118
H       -1.4136054052    1.9192572884    0.1515744758
18   
Iteration 20 Energy -449.88082431
O        0.7863499843   -1.3654419914    0.6389173075
H        1.4547689250   -2.0373860398    0.8873332556
H        1.2912046184   -0.4883681063    0.6621932738
O       -1.2539112778   -0.9780852120    2.3857256992
H       -0.5354015138   -1.2473807876    1.7577740318
H       -1.4076631888   -0.0452421042    2.0964081379
O        1.7351618927    0.8827638780    0.5203952697
H        0.9090347620    1.4431430455    0.4238044878
H        2.2705080715    1.3306256669    1.2131800381
O       -0.1399907836    0.9042033914   -2.3218161842
H        0.8233546899    0.9729259803   -2.5155170032
H       -0.2426200377   -0.0751305175   -2.1030251083
O       -0.3585320929   -1.4509740452   -1.6112567920
H        0.0755440234   -1.4918970671   -0.7085092492
H        0.0826753341   -2.1615094790   -2.1256461197
O       -0.3683081269    1.9747622958   -0.0766522826
H       -0.3795743851    1.6343271566   -1.0221855624
H       -1.3149996699    1.9173573374    0.1857161392
18   
Iteration 21 Energy -449.88328448
O        0.7815583982   -1.3822163477    0.6432929000
H        1.4766002060   -2.0317781812    0.8796988268
H        1.2440758223   -0.4728198759    0.6434304768
O       -1.2499636116   -0.9862974712    2.3923674363
H       -0.5156305653   -1.2375962269    1.7758731926
H       -1.4302852043   -0.0608599248    2.0960499629
O        1.6963897055    0.8559427330    0.5259883865
H        0.8397231732    1.3775524231    0.3999288967
H        2.1723400865    1.3073329400    1.2572147455
O       -0.1924392464    0.9069943748   -2.3180009457
H        0.7577877490    1.0167425912   -2.5540533484
H       -0.2467007718   -0.0776241552   -2.0931537042
O       -0.3290385026   -1.4339412527   -1.5611635989
H        0.1160732403   -1.5274901773   -0.6661308063
H        0.1069629129   -2.1262636623   -2.1018317462
O       -0.2676390877    2.0046658963   -0.1608142910
H       -0.3663650236    1.6671839075   -1.1079598429
H       -1.1658524158    1.9191676457    0.2361079764
18   
Iteration 22 Energy -449.88620808
O        0.7776153284   -1.3779815045    0.6491053461
H        1.4560223769   -2.0583550473    0.8436261714
H        1.2691821154   -0.4709418583    0.6906943653
O       -1.2229809010   -1.0119773073    2.3936870210
H       -0.4870955475   -1.2200247577    1.7637976214
H       -1.4336160435   -0.0899586273    2.1069893098
O        1.6584353833    0.8066581505    0.5525727623
H        0.8468261917    1.3741102898    0.2889537489
H        2.0372412051    1.2422098601    1.3415800537
O       -0.2313838641    0.9176177632   -2.3142502045
H        0.7063478519    0.9963664841   -2.6002183692
H       -0.3141726507   -0.0659839899   -2.0718203996
O       -0.3176531463   -1.4342418480   -1.5379209159
H        0.1320693505   -1.5206928892   -0.6367525797
H        0.1557565044   -2.0975188354   -2.0842059794
O       -0.2272634378    2.1037052945   -0.2076867957
H       -0.2977128822    1.6912854570   -1.1375833563
H       -1.0800280294    1.9344121344    0.2462817648
18   
Iteration 23 Energy -449.88692975
O        0.7768345568   -1.4094382684    0.6681582231
H        1.4999261469   -2.0389876917    0.8697434914
H        1.2029744433   -0.4636525247    0.6504176820
O       -1.2158635337   -1.0232767374    2.4017498874
H       -0.4815286275   -1.2571789748    1.7769755764
H       -1.4270006646   -0.1022309190    2.1086070235
O        1.6650215984    0.8142546245    0.5820029655
H        0.9084246544    1.4370209549    0.2583852277
H        1.9915230425    1.2308402655    1.4016307788
O       -0.2264133980    0.9075166517   -2.3083898173
H        0.6951119159    0.9846480355   -2.6388798247
H       -0.3117402152   -0.0832378677   -2.0961938881
O       -0.3348421598   -1.4286124892   -1.5478847938
H        0.0899756689   -1.4949042016   -0.6298888444
H        0.1684828657   -2.0681501828   -2.0971654490
O       -0.2145585315    2.1129308407   -0.2210243379
H       -0.3044587322    1.6667986159   -1.1387507168
H       -1.0542820766    1.9343442595    0.2473564524
18   
Iteration 24 Energy -449.88829524
O        0.7552314991   -1.3715496231    0.6619383641
H        1.4450897289   -2.0335207057    0.8832596604
H        1.2351210665   -0.4510428348    0.6763737720
O       -1.2200469276   -1.0509673140    2.4291718595
H       -0.4977392859   -1.2930759945    1.7904523504
H       -1.4443447876   -0.1354441488    2.1257827756
O        1.6993241938    0.8525038676    0.5864622618
H        0.9107029766    1.4405027449    0.2608830520
H        1.9521162659    1.2325672894    1.4532012820
O       -0.2677658665    0.9143856140   -2.3432706297
H        0.6281517308    0.9675253295   -2.7432216327
H       -0.3351290349   -0.0643528284   -2.0744434228
O       -0.2859625936   -1.4087873152   -1.5710596283
H        0.1054173008   -1.4727019845   -0.6373103704
H        0.1724736500   -2.1120089450   -2.0809741188
O       -0.1494226949    2.1068272580   -0.2310117239
H       -0.2937124803    1.6735316421   -1.1517505922
H       -0.9819164604    1.9242934045    0.2523586136
18   
Iteration 25 Energy -449.88751734
O        0.7464745782   -1.3204495218    0.6539366364
H        1.4647251944   -1.9677107929    0.8273280815
H        1.2019069641   -0.3862710493    0.7041232935
O       -1.2286133916   -1.0712920672    2.4639492593
H       -0.4931003015   -1.3070490468    1.8396737688
H       -1.4577209047   -0.1700587971    2.1270955544
O        1.6573029743    0.7993470933    0.6475680513
H        0.9167564663    1.4508736450    0.3296855648
H        1.9370406616    1.1419489944    1.5264044455
O       -0.3084871055    0.8879566459   -2.3546282347
H        0.5395363518    1.0099800403   -2.8377152573
H       -0.2816516189   -0.0846894157   -2.0542373340
O       -0.2857850864   -1.4149817338   -1.5622114603
H        0.1261468546   -1.4971248064   -0.6396325908
H        0.1706265216   -2.0942790437   -2.1034862167
O       -0.0959164301    2.1309540137   -0.2912033135
H       -0.2619551219    1.6781837218   -1.2007970458
H       -0.9196978288    1.9333440814    0.2109789401
18   
Iteration 26 Energy -449.88928319
O        0.7316262303   -1.3542166965    0.6582052717
H        1.4406576028   -2.0067736382    0.8414826522
H        1.1942283226   -0.4230911417    0.7082081989
O       -1.2231128247   -1.0854140784    2.4706272711
H       -0.4991040070   -1.3010576114    1.8291060588
H       -1.4686677552   -0.1861524811    2.1427771630
O        1.7106311464    0.8450591932    0.6490693487
H        0.9585218977    1.4621569897    0.2964272687
H        1.9188679681    1.1787166557    1.5487407095
O       -0.3292151681    0.8865129087   -2.3371288376
H        0.5111182246    1.0331840724   -2.8274166817
H       -0.2978531576   -0.0982905293   -2.0705242352
O       -0.2840030719   -1.4172220933   -1.5539134927
H        0.1487430146   -1.4737830887   -0.6383913932
H        0.1636243254   -2.1042793870   -2.0917197168
O       -0.1008450192    2.1398668936   -0.2950766114
H       -0.2056090894    1.6928069841   -1.2164946294
H       -0.9420201160    1.9306632323    0.1728549409
18   
Iteration 27 Energy -449.88986500
O        0.7445091829   -1.3495676764    0.6660286310
H        1.4366698313   -2.0158017777    0.8587493366
H        1.2365997577   -0.4322915287    0.6826292834
O       -1.2071998734   -1.0951726695    2.4649074193
H       -0.4927030785   -1.2991756044    1.8073246052
H       -1.4770358172   -0.1933473203    2.1586935014
O        1.6886605312    0.8483091642    0.6661665859
H        0.9548118476    1.4625038047    0.2640256952
H        1.8731360173    1.2141665717    1.5552491187
O       -0.2957331298    0.8978276829   -2.3332060061
H        0.5413922738    0.9733463179   -2.8404373793
H       -0.3443810237   -0.0941975278   -2.0842809532
O       -0.2926654711   -1.4015609409   -1.5675492366
H        0.1207622026   -1.4515306802   -0.6396301741
H        0.1909699640   -2.0764389551   -2.0914509051
O       -0.0846495079    2.1230425636   -0.2878606363
H       -0.2435191695    1.6509761714   -1.1880858070
H       -0.9220386374    1.9575949331    0.1955590931
18   
Iteration 28 Energy -449.89079186
O        0.7441096027   -1.3409789111    0.6515317124
H        1.4511234020   -1.9943346847    0.8392110603
H        1.2050817460   -0.4062221934    0.7056958322
O       -1.2076297243   -1.1110242175    2.4829537600
H       -0.4905607177   -1.3091604661    1.8249715018
H       -1.5004105743   -0.2176270838    2.1726777939
O        1.6970982259    0.8360189872    0.6852269349
H        0.9685442586    1.4593376988    0.2835526671
H        1.8550016037    1.1879242798    1.5859245831
O       -0.3290605721    0.8877211440   -2.3649393870
H        0.4811316664    0.9788409519   -2.9112710605
H       -0.3263428134   -0.0978387881   -2.0850743241
O       -0.2862744417   -1.4089794905   -1.5620029831
H        0.1185126549   -1.4528412423   -0.6287217213
H        0.1992638622   -2.0823533624   -2.0852130361
O       -0.0520161535    2.1394028151   -0.2953793159
H       -0.2123220379    1.6772907196   -1.2043572558
H       -0.8876697769    1.9735053272    0.1920428132
18   
Iteration 29 Energy -449.89084073
O        0.7317025045   -1.3186624078    0.6520396247
H        1.4332385161   -1.9869114301    0.8089875884
H        1.1982127736   -0.3871499983    0.7473606217
O       -1.1934518544   -1.1428431909    2.5048617038
H       -0.4857665519   -1.3117231574    1.8300994392
H       -1.5205631697   -0.2627048317    2.1949132662
O        1.6847527115    0.8403477383    0.7232513006
H        0.9860550864    1.4849584167    0.3033359204
H        1.8074860265    1.1703415287    1.6407272159
O       -0.3537822483    0.8797549893   -2.3382533029
H        0.4133201774    0.9836651969   -2.9444720729