3    
Iteration 0 Energy -92.20273240
C        0.0000000000    0.0000000000    0.0000000000
N        0.0000000000    0.0000000000    1.1483800000
H       -1.5853600000    0.0000000000    1.1483800000
3    
Iteration 1 Energy -92.20336055
C       -0.0131839065   -0.0000003243    0.0002964894
N        0.0092264838    0.0000001282    1.1554518456
H       -1.5833724017   -0.0000000158    1.1447533413
3    
Iteration 2 Energy -92.20397113
C       -0.0329550654    0.0000046174    0.0019104329
N        0.0220820396   -0.0000034540    1.1646836359
H       -1.5798958008   -0.0000007911    1.1393266964
3    
Iteration 3 Energy -92.20458685
C       -0.0626412649    0.0000047166    0.0066371324
N        0.0396848696   -0.0000037279    1.1761489336
H       -1.5738234448   -0.0000007901    1.1312251287
3    
Iteration 4 Energy -92.20570062
C       -0.1070551000    0.0000048014    0.0178590030
N        0.0627665953   -0.0000039933    1.1891798236
H       -1.5631077249   -0.0000008214    1.1190918237
3    
Iteration 5 Energy -92.20782862
C       -0.1555547491    0.0000049730    0.0346464997
N        0.0843576392   -0.0000042677    1.1997188797
H       -1.5495929715   -0.0000008367    1.1054300717
3    
Iteration 6 Energy -92.21086630
C       -0.1997070019    0.0000051280    0.0534386193
N        0.1008668576   -0.0000044906    1.2068914531
H       -1.5357171061   -0.0000008274    1.0924554349
3    
Iteration 7 Energy -92.21562181
C       -0.2478750288    0.0000052382    0.0769218181
N        0.1144382558   -0.0000046813    1.2128604534
H       -1.5183644187   -0.0000007925    1.0777401185
3    
Iteration 8 Energy -92.22188345
C       -0.2945976674    0.0000052639    0.1013659371
N        0.1202430589   -0.0000048022    1.2179118519
H       -1.4978610975   -0.0000007382    1.0630025071
3    
Iteration 9 Energy -92.22947858
C       -0.3342584413    0.0000051266    0.1193124254
N        0.1043323470   -0.0000047742    1.2246969840
H       -1.4700593873   -0.0000006716    1.0506375324
3    
Iteration 10 Energy -92.23617181
C       -0.3627144351    0.0000049756    0.1277197884
N        0.0715221714   -0.0000046864    1.2332226546
H       -1.4394238385   -0.0000006270    1.0421689535
3    
Iteration 11 Energy -92.24156250
C       -0.3973569497    0.0000049414    0.1406305223
N        0.0464791100   -0.0000046909    1.2409358489
H       -1.4095475924   -0.0000005912    1.0318651850
3    
Iteration 12 Energy -92.24506531
C       -0.4355171324    0.0000048581    0.1568909640
N        0.0272954005   -0.0000046693    1.2476117450
H       -1.3808222941   -0.0000005339    1.0204088816
3    
Iteration 13 Energy -92.24604527
C       -0.4773319395    0.0000044017    0.1747378909
N        0.0134000076   -0.0000042945    1.2511631468
H       -1.3526413511   -0.0000003067    1.0097748164
3    
Iteration 14 Energy -92.24604600
C       -0.4881541529   -0.0000030363    0.1810813229
N        0.0208084569   -0.0000352984    1.2491998784
H       -1.3653914376   -0.0000291070    1.0244205614
3    
Iteration 15 Energy -92.24604277
C       -0.4915268959   -0.0000008556    0.1819782247
N        0.0238542148   -0.0000350206    1.2466441852
H       -1.3646919060   -0.0000285982    1.0247001654
3    
Iteration 16 Energy -92.24604265
C       -0.4920942100    0.0000011214    0.1819204760
N        0.0252447687   -0.0000352573    1.2454785086
H       -1.3648787687   -0.0000286800    1.0251134165
