304  
Iteration 0 Energy -7436.17116029
N       -8.9010000000    4.1270000000   -0.5550000000
C       -8.6080000000    3.1350000000   -1.6180000000
C       -7.1170000000    2.9640000000   -1.8970000000
O       -6.6340000000    1.8490000000   -1.7580000000
C       -9.4370000000    3.3960000000   -2.8890000000
C      -10.9150000000    3.1300000000   -2.6110000000
O      -11.2690000000    2.7000000000   -1.5240000000
N      -11.8060000000    3.4060000000   -3.5430000000
H       -8.3300000000    3.9570000000    0.2610000000
H       -8.7400000000    5.0680000000   -0.8890000000
H       -9.8770000000    4.0410000000   -0.2930000000
H       -8.9300000000    2.1620000000   -1.2390000000
H       -9.3100000000    4.4170000000   -3.1930000000
H       -9.1080000000    2.7190000000   -3.6790000000
H      -11.5720000000    3.7910000000   -4.4440000000
H      -12.7570000000    3.1830000000   -3.2940000000
N       -6.3790000000    4.0310000000   -2.2280000000
C       -4.9230000000    4.0020000000   -2.4520000000
C       -4.1360000000    3.1870000000   -1.4040000000
O       -3.3910000000    2.2740000000   -1.7600000000
C       -4.4110000000    5.4500000000   -2.6190000000
C       -4.7950000000    6.4500000000   -1.4950000000
C       -3.6120000000    6.8030000000   -0.5990000000
C       -5.3510000000    7.7480000000   -2.0840000000
H       -6.8210000000    4.9230000000   -2.3940000000
H       -4.7500000000    3.4940000000   -3.4030000000
H       -3.3400000000    5.4140000000   -2.6720000000
H       -4.8130000000    5.8170000000   -3.5640000000
H       -5.5680000000    6.0220000000   -0.8580000000
H       -3.2070000000    5.9050000000   -0.1460000000
H       -2.8410000000    7.3040000000   -1.1830000000
H       -3.9290000000    7.4770000000    0.1970000000
H       -4.6070000000    8.2090000000   -2.7360000000
H       -6.2550000000    7.5440000000   -2.6570000000
H       -5.5920000000    8.4450000000   -1.2810000000
N       -4.3540000000    3.4550000000   -0.1110000000
C       -3.6900000000    2.7380000000    0.9810000000
C       -4.1020000000    1.2560000000    1.0740000000
O       -3.2910000000    0.4090000000    1.4420000000
C       -3.9640000000    3.4720000000    2.3020000000
C       -2.8240000000    3.3390000000    3.2900000000
C       -2.7460000000    2.2170000000    4.1380000000
C       -1.8200000000    4.3260000000    3.3320000000
C       -1.6570000000    2.0760000000    5.0180000000
C       -0.7250000000    4.1850000000    4.2050000000
C       -0.6390000000    3.0530000000    5.0430000000
O        0.4330000000    2.8810000000    5.8610000000
H       -4.9340000000    4.2450000000    0.1200000000
H       -2.6150000000    2.7680000000    0.7960000000
H       -4.1170000000    4.5130000000    2.0910000000
H       -4.8860000000    3.0960000000    2.7500000000
H       -3.5130000000    1.4560000000    4.1010000000
H       -1.8770000000    5.2000000000    2.6950000000
H       -1.5760000000    1.2210000000    5.6690000000
H        0.0330000000    4.9520000000    4.2330000000
H        1.1870000000    3.3950000000    5.5670000000
N       -5.3420000000    0.9250000000    0.6890000000
C       -5.8570000000   -0.4490000000    0.6130000000
C       -5.0890000000   -1.2210000000   -0.4700000000
O       -4.6210000000   -2.3340000000   -0.2260000000
C       -7.3860000000   -0.4660000000    0.3430000000
C       -8.1970000000    0.5400000000    1.1970000000
C       -7.9590000000   -1.8840000000    0.5010000000
C       -8.0190000000    0.4120000000    2.7150000000
H       -5.9060000000    1.6560000000    0.2830000000
H       -5.6700000000   -0.9410000000    1.5680000000
H       -7.5540000000   -0.1920000000   -0.6970000000
H       -7.9000000000    1.5310000000    0.9120000000
H       -9.2570000000    0.4240000000    0.9640000000
H       -7.5090000000   -2.5550000000   -0.2320000000
H       -7.7590000000   -2.2710000000    1.5010000000
H       -9.0360000000   -1.8710000000    0.3320000000
H       -8.3060000000   -0.5850000000    3.0490000000
H       -6.9830000000    0.6060000000    2.9950000000
H       -8.6560000000    1.1440000000    3.2130000000
N       -4.9070000000   -0.6010000000   -1.6450000000
C       -4.1220000000   -1.1670000000   -2.7430000000
C       -2.6290000000   -1.3210000000   -2.3900000000
O       -1.9860000000   -2.2400000000   -2.8840000000
C       -4.2920000000   -0.3130000000   -4.0130000000
C       -4.2440000000   -1.1710000000   -5.2900000000
C       -5.5760000000   -1.8600000000   -5.5850000000
O       -5.7690000000   -3.0440000000   -5.3350000000
N       -6.5320000000   -1.1460000000   -6.1520000000
H       -5.3270000000    0.3180000000   -1.7630000000
H       -4.5170000000   -2.1620000000   -2.9400000000
H       -5.2380000000    0.1910000000   -3.9690000000
H       -3.4920000000    0.4290000000   -4.0530000000
H       -3.9930000000   -0.5390000000   -6.1200000000
H       -3.4580000000   -1.9230000000   -5.2050000000
H       -6.3890000000   -0.1840000000   -6.4080000000
H       -7.3920000000   -1.6350000000   -6.3350000000
N       -2.0740000000   -0.4590000000   -1.5280000000
C       -0.7160000000   -0.6310000000   -0.9930000000
C       -0.6310000000   -1.7660000000    0.0440000000
O        0.2950000000   -2.5790000000   -0.0040000000
C       -0.2210000000    0.7030000000   -0.4170000000
C        1.1480000000    0.6520000000    0.1940000000
C        2.3190000000    0.6640000000   -0.4820000000
C        1.5080000000    0.5640000000    1.6060000000
N        3.3710000000    0.5600000000    0.4110000000
C        2.9280000000    0.5150000000    1.7100000000
C        0.7790000000    0.5240000000    2.8120000000
C        3.5990000000    0.4450000000    2.9380000000
C        1.4390000000    0.4330000000    4.0530000000
C        2.8420000000    0.4070000000    4.1200000000
H       -2.6240000000    0.3430000000   -1.2420000000
H       -0.0520000000   -0.9080000000   -1.8130000000
H       -0.2060000000    1.4250000000   -1.2110000000
H       -0.9210000000    1.0440000000    0.3440000000
H        2.4120000000    0.7330000000   -1.5580000000
H        4.3600000000    0.5360000000    0.1560000000
H       -0.2990000000    0.5710000000    2.7730000000
H        4.6790000000    0.4180000000    2.9610000000
H        0.8620000000    0.4000000000    4.9660000000
H        3.3340000000    0.3600000000    5.0810000000
N       -1.6000000000   -1.8600000000    0.9670000000
C       -1.6410000000   -2.9320000000    1.9630000000
C       -1.8470000000   -4.3190000000    1.3420000000
O       -1.1440000000   -5.2480000000    1.7420000000
C       -2.7100000000   -2.6450000000    3.0330000000
C       -2.3010000000   -1.5790000000    4.0690000000
C       -3.4750000000   -1.3230000000    5.0180000000
C       -1.0930000000   -2.0070000000    4.9140000000
H       -2.3160000000   -1.1370000000    0.9940000000
H       -0.6660000000   -2.9780000000    2.4450000000
H       -3.6000000000   -2.3080000000    2.5370000000
H       -2.9210000000   -3.5710000000    3.5720000000
H       -2.0610000000   -0.6490000000    3.5600000000
H       -4.3430000000   -0.9920000000    4.4490000000
H       -3.7250000000   -2.2370000000    5.5600000000
H       -3.2110000000   -0.5490000000    5.7390000000
H       -1.2700000000   -2.9890000000    5.3540000000
H       -0.1950000000   -2.0450000000    4.3000000000
H       -0.9220000000   -1.2860000000    5.7120000000
N       -2.7530000000   -4.4810000000    0.3600000000
C       -3.0240000000   -5.7910000000   -0.2690000000
C       -1.7960000000   -6.4270000000   -0.9370000000
O       -1.7190000000   -7.6480000000   -1.0300000000
C       -4.2240000000   -5.6970000000   -1.2320000000
C       -3.9300000000   -5.0090000000   -2.5770000000
C       -3.6820000000   -5.9860000000   -3.7360000000
C       -3.4940000000   -5.1990000000   -5.0390000000
N       -4.5630000000   -5.4830000000   -6.0230000000
H       -3.3210000000   -3.6750000000    0.0970000000
H       -3.3090000000   -6.4780000000    0.5290000000
H       -4.5650000000   -6.6940000000   -1.4360000000
H       -5.0190000000   -5.1430000000   -0.7310000000
H       -4.7690000000   -4.3900000000   -2.8300000000
H       -3.0620000000   -4.3680000000   -2.4690000000
H       -2.7990000000   -6.5620000000   -3.5360000000
H       -4.5240000000   -6.6740000000   -3.8180000000
H       -3.5020000000   -4.1500000000   -4.8130000000
H       -2.5110000000   -5.4390000000   -5.4570000000
H       -4.6210000000   -6.4740000000   -6.2110000000
H       -5.4420000000   -5.1240000000   -5.6570000000
H       -4.3820000000   -4.9830000000   -6.8810000000
N       -0.8280000000   -5.6070000000   -1.3550000000
C        0.4660000000   -6.0160000000   -1.9050000000
C        1.4810000000   -6.4640000000   -0.8320000000
O        2.5450000000   -6.9710000000   -1.1940000000
C        1.0330000000   -4.8390000000   -2.7240000000
C        0.6720000000   -4.9060000000   -4.2100000000
O       -0.5320000000   -5.0510000000   -4.5220000000
O        1.6270000000   -4.8150000000   -5.0170000000
H       -1.0100000000   -4.6160000000   -1.2910000000
H        0.3190000000   -6.8670000000   -2.5740000000
H        0.6440000000   -3.9240000000   -2.3200000000
H        2.1160000000   -4.8370000000   -2.6500000000
N        1.1850000000   -6.2780000000    0.4640000000
C        2.0600000000   -6.6180000000    1.5930000000
C        2.6280000000   -5.4120000000    2.3530000000
O        3.4960000000   -5.5940000000    3.2080000000
H        0.2650000000   -5.9080000000    0.6930000000
H        1.4860000000   -7.2140000000    2.3040000000
H        2.8970000000   -7.2280000000    1.2520000000
N        2.1720000000   -4.1870000000    2.0550000000
C        2.6260000000   -2.9670000000    2.7230000000
C        4.1570000000   -2.8020000000    2.6540000000
O        4.7100000000   -2.8290000000    1.5510000000
H        1.4810000000   -4.0890000000    1.3190000000
H        2.1640000000   -2.1090000000    2.2370000000
H        2.2800000000   -2.9970000000    3.7530000000
N        4.8710000000   -2.6510000000    3.7940000000
C        6.3330000000   -2.5330000000    3.8060000000
C        7.0580000000   -3.7290000000    3.1650000000
O        8.1390000000   -3.5620000000    2.6010000000
C        6.7400000000   -2.3870000000    5.2790000000
C        5.4600000000   -1.9520000000    5.9870000000
C        4.3620000000   -2.6150000000    5.1600000000
H        6.6110000000   -1.6260000000    3.2670000000
H        7.0910000000   -3.3230000000    5.6700000000
H        7.5310000000   -1.6470000000    5.4030000000
H        5.4430000000   -2.3020000000    7.0010000000
H        5.3580000000   -0.8670000000    5.9290000000
H        4.1730000000   -3.6090000000    5.5160000000
H        3.4400000000   -2.0420000000    5.2460000000
N        6.4630000000   -4.9290000000    3.2050000000
C        7.0490000000   -6.1790000000    2.7040000000
C        6.8970000000   -6.3690000000    1.1850000000
O        7.0250000000   -7.4880000000    0.6970000000
C        6.4580000000   -7.3710000000    3.4720000000
O        6.7630000000   -7.2640000000    4.8500000000
H        5.5350000000   -4.9990000000    3.6130000000
H        8.1210000000   -6.1590000000    2.9030000000
H        5.3930000000   -7.3820000000    3.3440000000
H        6.8800000000   -8.3020000000    3.0930000000
H        7.7070000000   -7.3940000000    4.9700000000
N        6.6370000000   -5.2900000000    0.4340000000
C        6.3890000000   -5.3150000000   -1.0150000000
C        7.3320000000   -4.4050000000   -1.8230000000
O        7.0820000000   -4.1230000000   -2.9930000000
C        4.9140000000   -4.9930000000   -1.2650000000
O        4.4310000000   -5.7430000000   -2.3580000000
H        6.5090000000   -4.4150000000    0.9300000000
H        6.5620000000   -6.3290000000   -1.3780000000
H        4.3440000000   -5.2360000000   -0.3890000000
H        4.7780000000   -3.9340000000   -1.4570000000
H        3.7140000000   -6.3240000000   -1.9870000000
N        8.4190000000   -3.9200000000   -1.2020000000
C        9.4510000000   -3.1160000000   -1.8700000000
C        8.9840000000   -1.7250000000   -2.3160000000
O        9.5390000000   -1.1770000000   -3.2670000000
H        8.5730000000   -4.2100000000   -0.2460000000
H       10.2970000000   -2.9870000000   -1.1940000000
H        9.8050000000   -3.6520000000   -2.7520000000
N        7.9560000000   -1.1640000000   -1.6600000000
C        7.2890000000    0.0840000000   -2.0540000000
C        6.8550000000    0.9160000000   -0.8290000000
O        6.2220000000    0.3660000000    0.0760000000
C        6.1100000000   -0.2430000000   -2.9940000000
C        5.0460000000   -1.1710000000   -2.3780000000
C        3.9230000000   -1.5920000000   -3.3380000000
N        4.2510000000   -2.8110000000   -4.1000000000
C        4.8590000000   -2.9140000000   -5.2740000000
N        5.2890000000   -1.8640000000   -5.9370000000
N        5.0350000000   -4.0950000000   -5.8090000000
H        7.5790000000   -1.6760000000   -0.8740000000
H        8.0090000000    0.6630000000   -2.6300000000
H        5.6340000000    0.6780000000   -3.2690000000
H        6.5240000000   -0.7200000000   -3.8800000000
H        5.5380000000   -2.0590000000   -2.0310000000
H        4.5790000000   -0.6520000000   -1.5490000000
H        3.0330000000   -1.7740000000   -2.7660000000
H        3.6690000000   -0.7650000000   -4.0030000000
H        3.9630000000   -3.6940000000   -3.6980000000
H        5.1500000000   -0.9620000000   -5.5210000000
H        5.7610000000   -1.9620000000   -6.8150000000
H        4.6490000000   -4.8940000000   -5.3270000000
H        5.5080000000   -4.2050000000   -6.6840000000
N        7.1560000000    2.2300000000   -0.7800000000
C        6.7820000000    3.0880000000    0.3450000000
C        5.2610000000    3.3310000000    0.3950000000
O        4.5860000000    3.1650000000   -0.6240000000
C        7.5540000000    4.3940000000    0.1190000000
C        7.6770000000    4.4740000000   -1.4010000000
C        7.8200000000    3.0100000000   -1.8160000000
H        7.1070000000    2.6280000000    1.2790000000
H        7.0090000000    5.2340000000    0.5050000000
H        8.5480000000    4.3080000000    0.5610000000
H        6.8000000000    4.9140000000   -1.8360000000
H        8.5400000000    5.0660000000   -1.7070000000
H        7.3490000000    2.8440000000   -2.7660000000
H        8.8760000000    2.7390000000   -1.8550000000
N        4.7100000000    3.7390000000    1.5550000000
C        3.2870000000    4.0310000000    1.6860000000
C        2.9010000000    5.3050000000    0.9130000000
O        3.6840000000    6.2560000000    0.8710000000
C        3.0350000000    4.1900000000    3.1870000000
C        4.3850000000    4.6550000000    3.7290000000
C        5.3930000000    3.9490000000    2.8230000000
H        2.7190000000    3.1810000000    1.3160000000
H        2.2740000000    4.9240000000    3.3720000000
H        2.7810000000    3.2230000000    3.6180000000
H        4.4820000000    5.7210000000    3.6540000000
H        4.5180000000    4.3770000000    4.7750000000
H        6.2620000000    4.5620000000    2.6820000000
H        5.6620000000    2.9830000000    3.2530000000
N        1.6880000000    5.3600000000    0.3360000000
C        1.1850000000    6.5430000000   -0.3530000000
C        0.7150000000    7.6070000000    0.6550000000
O       -0.1240000000    7.3240000000    1.5130000000
C        0.0480000000    6.0140000000   -1.2290000000
C       -0.5190000000    4.8520000000   -0.4120000000
C        0.7160000000    4.2750000000    0.2720000000
H        1.9610000000    6.9660000000   -0.9910000000
H       -0.6970000000    6.7700000000   -1.3890000000
H        0.4630000000    5.6300000000   -2.1620000000
H       -1.2320000000    5.2010000000    0.3100000000
H       -1.0190000000    4.1140000000   -1.0410000000
H        0.4700000000    3.9370000000    1.2600000000
H        1.1210000000    3.4610000000   -0.3290000000
N        1.2710000000    8.8220000000    0.5490000000
C        0.8520000000   10.0270000000    1.2850000000
C       -0.4060000000   10.6570000000    0.6830000000
O       -0.3870000000   10.9160000000   -0.5400000000
C        1.9720000000   11.0710000000    1.2840000000
O        3.1200000000   10.5410000000    1.9110000000
O       -1.3410000000   10.9030000000    1.4730000000
H        1.9690000000    8.9610000000   -0.1650000000
H        0.6010000000    9.7600000000    2.3100000000
H        2.2100000000   11.3380000000    0.2720000000
H        1.6360000000   11.9590000000    1.8240000000
H        2.8310000000   10.0400000000    2.6760000000
304  
Iteration 1 Energy -7436.27650063
N       -8.9210651949    4.0907303391   -0.6000910489
C       -8.5656644470    3.0732470247   -1.6501738948
C       -7.0585355478    2.8974497837   -1.8825937814
O       -6.4825745805    1.7940271689   -1.7717344304
C       -9.3633433705    3.3790441355   -2.9118097459
C      -10.8264080171    3.1547506768   -2.5433506987
O      -11.0590519561    2.7600763353   -1.3785753750
N      -11.7451147323    3.4301035711   -3.4828782023
H       -8.3976269258    3.9404464785    0.2763007656
H       -8.7683658371    5.0629306022   -0.9115846124
H       -9.9332733693    3.9636263923   -0.4082606779
H       -8.9120423992    2.1119593022   -1.2654997037
H       -9.2213572746    4.4132100038   -3.2474247367
H       -9.0512327138    2.6934582321   -3.7071726929
H      -11.5049979949    3.7682532578   -4.4074852501
H      -12.7200792512    3.2709592089   -3.2446394101
N       -6.3950839708    4.0184157477   -2.2034147804
C       -4.9436137029    3.9368630937   -2.4377800540
C       -4.1975233127    3.0930167366   -1.3867257333
O       -3.4102644777    2.1657794016   -1.6679995341
C       -4.4094735859    5.3842745870   -2.5986898741
C       -4.8051088683    6.3902605466   -1.4756384668
C       -3.6082360640    6.7426096865   -0.5747261416
C       -5.3714848957    7.6860945434   -2.0889666161
H       -6.8577942030    4.9109411132   -2.3655681090
H       -4.7592955823    3.4115659175   -3.3813491588
H       -3.3178348400    5.3365642135   -2.6679874763
H       -4.8028670266    5.7527858346   -3.5539014334
H       -5.5940516056    5.9595787733   -0.8417623153
H       -3.1795036320    5.8506423309   -0.1092239903
H       -2.8316144592    7.2426634317   -1.1660245447
H       -3.9248849738    7.4272921670    0.2208912961
H       -4.6225084260    8.1483048474   -2.7440031494
H       -6.2758926640    7.4847848980   -2.6762411356
H       -5.6251918736    8.4000861644   -1.2964607583
N       -4.4601243504    3.4356808126   -0.1096848079
C       -3.7035737711    2.7192910614    0.9177287868
C       -4.0667346397    1.2317901542    0.9827455371
O       -3.2400424808    0.3505613394    1.3123571946
C       -3.9551908200    3.4392135973    2.2670629038
C       -2.7973954832    3.3100821546    3.2320797258
C       -2.6943803199    2.2239322520    4.1034533989
C       -1.7835387167    4.2720052159    3.2656652314
C       -1.6287294822    2.0816994322    4.9858718880
C       -0.7128138551    4.1214874588    4.1474626200
C       -0.6057830251    3.0294782827    5.0197503010
O        0.4349431944    2.8451670989    5.8974735364
H       -5.0638021872    4.2152825047    0.1377562827
H       -2.6350690172    2.7548148357    0.6846819772
H       -4.1226846615    4.4999844572    2.0509778369
H       -4.8695528200    3.0499058452    2.7326137125
H       -3.4696725582    1.4668987132    4.0921339565
H       -1.8180207805    5.1423388221    2.6163202703
H       -1.5723318918    1.2342493659    5.6580369155
H        0.0546857443    4.8872222875    4.1690696062
H        1.2250152105    3.3802068870    5.6522311162
N       -5.3395999113    0.9751682074    0.6386424919
C       -5.7899360546   -0.4189240030    0.6122533612
C       -5.0034728126   -1.2042456426   -0.4498819002
O       -4.4930397213   -2.3387658865   -0.3147893627
C       -7.3065112167   -0.4499671062    0.3228048204
C       -8.1139332584    0.5524840724    1.1720196865
C       -7.8625075680   -1.8755585463    0.4960367899
C       -7.9406321655    0.3770828675    2.6904565787
H       -5.9234878333    1.7026110623    0.2317860815
H       -5.5824351613   -0.9056367670    1.5701838255
H       -7.4481304669   -0.1641958100   -0.7271329883
H       -7.8210762836    1.5713676421    0.8996525894
H       -9.1731289747    0.4334471236    0.9106189540
H       -7.4017114418   -2.5690680006   -0.2167370786
H       -7.6825101972   -2.2523049965    1.5097441262
H       -8.9425723463   -1.8617856743    0.3127811746
H       -8.2274568222   -0.6326249931    3.0035855623
H       -6.9017283838    0.5606004415    2.9846276617
H       -8.5799385386    1.0930960815    3.2200334438
N       -4.8948592738   -0.5073217268   -1.5969211486
C       -4.1267531238   -1.1432298644   -2.6675665527
C       -2.6507054188   -1.3569901244   -2.2951436230
O       -1.9987917872   -2.3164074275   -2.7602306423
C       -4.2784266208   -0.2937959344   -3.9544455057
C       -4.1879364026   -1.1734206586   -5.2218183924
C       -5.4697657814   -1.9458532317   -5.4850135585
O       -5.5675436226   -3.1589592619   -5.1801858948
N       -6.4544144712   -1.2164021073   -6.0504371877
H       -5.3065784549    0.4242572646   -1.7059174697
H       -4.5187033257   -2.1480195834   -2.8542567969
H       -5.2491192978    0.2122941728   -3.9166329500
H       -3.4955776108    0.4704907029   -3.9943525272
H       -3.9577063247   -0.5322914526   -6.0807140150
H       -3.3788567365   -1.8988137409   -5.1135759838
H       -6.3635783154   -0.2418968050   -6.3148797009
H       -7.3327616148   -1.6905733962   -6.2348884924
N       -2.1327321699   -0.4447363131   -1.4412328641
C       -0.7656545353   -0.6827685640   -0.9635904689
C       -0.6885911176   -1.8459964301    0.0390146807
O        0.1881099740   -2.7441020424    0.0297601058
C       -0.2473942180    0.6441028528   -0.3625813259
C        1.1362688656    0.5842702378    0.2351577139
C        2.3614523721    0.6122152514   -0.4079928610
C        1.4393570090    0.5042055847    1.6484504500
N        3.4796843372    0.5464032116    0.4031914913
C        2.8814225703    0.4888426437    1.6419897002
C        0.6791150649    0.4785648281    2.8296869312
C        3.5654452424    0.4484123315    2.8563670057
C        1.3940055985    0.4353094103    4.0188056441
C        2.8003451318    0.4248639270    4.0148573406
H       -2.6565443317    0.3858617249   -1.1545872782
H       -0.1299319186   -0.9823456003   -1.8019594591
H       -0.2594863213    1.3901240759   -1.1650487171
H       -0.9606068999    0.9665227593    0.4084065279
H        2.4886020577    0.6962576431   -1.4769037163
H        4.4816545252    0.5704242870    0.1811042272
H       -0.4058546033    0.5140362118    2.8163110325
H        4.6500300049    0.4457274315    2.8827295339
H        0.8596125283    0.4308138487    4.9595575450
H        3.3195515922    0.4102936116    4.9666358704
N       -1.6830111889   -1.8302525124    0.9441672488
C       -1.6309833583   -2.9281542655    1.9028563628
C       -1.7968123473   -4.3061332063    1.2438507642
O       -1.1264929382   -5.3237536769    1.5414883990
C       -2.7026393994   -2.6730970873    2.9814254351
C       -2.3013976004   -1.5930082507    4.0040465675
C       -3.4914142171   -1.3174841908    4.9441196862
C       -1.0827793926   -2.0207070432    4.8436983071
H       -2.4032563946   -1.0999730893    0.9941584408
H       -0.6386454826   -2.9765098473    2.3618424374
H       -3.6190632475   -2.3564560155    2.4706162305
H       -2.9009047592   -3.6066157217    3.5241702564
H       -2.0697061268   -0.6650242109    3.4680427462
H       -4.3729792334   -0.9926990516    4.3761192470
H       -3.7477088762   -2.2238949026    5.5064351959
H       -3.2313772070   -0.5286229385    5.6599597037
H       -1.2723902443   -2.9987453886    5.3040769264
H       -0.1703813227   -2.0832578964    4.2405929837
H       -0.9027160316   -1.2880786385    5.6397307070
N       -2.7495231008   -4.3597878235    0.2942499994
C       -2.9864911397   -5.7066939461   -0.2424857666
C       -1.7540066392   -6.3567528456   -0.8873233427
O       -1.6246223371   -7.5889987329   -1.0027199598
C       -4.1850191401   -5.6424537506   -1.2010527251
C       -3.8750089267   -4.9401268881   -2.5465806476
C       -3.6089205036   -5.9164758153   -3.7021587876
C       -3.3867494847   -5.1319993483   -5.0149741920
N       -4.5030475819   -5.3686951101   -6.0012245749
H       -3.3349171513   -3.5559443551    0.0286424239
H       -3.2424600335   -6.3890785754    0.5774724252
H       -4.5264859970   -6.6681087172   -1.3786348809
H       -4.9841953869   -5.0953227435   -0.6890429389
H       -4.7262984037   -4.3119073349   -2.8290608704
H       -3.0060236438   -4.2815466244   -2.4450399436
H       -2.7169983753   -6.5132084339   -3.4957163080
H       -4.4664094635   -6.5992043606   -3.7882775444
H       -3.3865910556   -4.0607703394   -4.8256830262
H       -2.4196570494   -5.3978888622   -5.4468548910
H       -4.6364069761   -6.3709804079   -6.1953788821
H       -5.3719530235   -4.9483587473   -5.6265420668
H       -4.3158201680   -4.8832642855   -6.8902068086
N       -0.8190721193   -5.4763186232   -1.2971059385
C        0.4511173873   -5.9541700489   -1.8345913283
C        1.4429397846   -6.4158949901   -0.7520373690
O        2.5309044457   -6.9677374099   -1.0476941592
C        1.0888552460   -4.8160456051   -2.6569053468
C        0.7265245472   -4.9236978839   -4.1585821272
O       -0.5238886626   -5.0942900518   -4.3397702889
O        1.6782240823   -4.8291023608   -4.9980194373
H       -0.9874227140   -4.4764651786   -1.2339574760
H        0.2791679786   -6.8205356509   -2.4859228457
H        0.7158981291   -3.8701494863   -2.2445478892
H        2.1756087438   -4.8468221609   -2.5719967702
N        1.0875056134   -6.1805342711    0.5200316771
C        2.0219235467   -6.5558591936    1.5795421578
C        2.6638842697   -5.3746715051    2.3229856483
O        3.5685272885   -5.5447025380    3.1732797489
H        0.1674437472   -5.7995164904    0.7704165554
H        1.4782447739   -7.1535454970    2.3215650201
H        2.8301761630   -7.1735535649    1.1762578562
N        2.1633474579   -4.1667694803    2.0036379204
C        2.6632809722   -2.9870252459    2.7076658443
C        4.1954311661   -2.8570015260    2.5864253575
O        4.8507292166   -2.8802144579    1.5223866787
H        1.4511529861   -4.0437118660    1.2838449359
H        2.2017417056   -2.1212312932    2.2239993195
H        2.3414542774   -3.0034893405    3.7534718000
N        4.8454434116   -2.6989918570    3.7654095465
C        6.3142654157   -2.5647830176    3.7194352565
C        7.0392005075   -3.7403899243    3.0619510365
O        8.1453167208   -3.6321049488    2.4928555805
C        6.7138258677   -2.4243743499    5.2130633499
C        5.4183911621   -1.9791218466    5.9379400588
C        4.2961968472   -2.6578343075    5.1336525070
H        6.6009111176   -1.6697761074    3.1578841575
H        7.0625203112   -3.3809389461    5.6137559799
H        7.5136994695   -1.6872947567    5.3259144359
H        5.4007756600   -2.3090563445    6.9783591718
H        5.3194987252   -0.8902671782    5.8760625194
H        4.1057488181   -3.6709356436    5.5049472063
H        3.3666601776   -2.0847651759    5.1890493676
N        6.3728809749   -4.9096315477    3.1645744495
C        7.0114471603   -6.1222684131    2.6675171394
C        6.8648077907   -6.3300648560    1.1545345704
O        7.0179897385   -7.4544047027    0.6388634690
C        6.4328888611   -7.3261740296    3.4207852519
O        6.6832525992   -7.2312970996    4.8374225698
H        5.4357037941   -4.9769274768    3.5643874718
H        8.0919869587   -6.0721553135    2.8690497682
H        5.3496877021   -7.3322187560    3.2831201816
H        6.8668347411   -8.2322455782    2.9818573885
H        7.6490450307   -7.3596894591    4.9944850828
N        6.5988815619   -5.1972714438    0.4606662798
C        6.3666020829   -5.2492801397   -0.9794309192
C        7.3074927052   -4.3325464069   -1.7684156187
O        7.0597497044   -4.0593413519   -2.9578577579
C        4.8981900625   -4.9086189952   -1.3039165904
O        4.4295189184   -5.5724043950   -2.5034943988
H        6.4395690473   -4.3151299202    0.9458967615
H        6.5561303197   -6.2735286409   -1.3234224809
H        4.3105955361   -5.1684067785   -0.4162718944
H        4.8172927662   -3.8291625240   -1.4503491556
H        3.6665800543   -6.1931361070   -2.2646345332
N        8.3827704656   -3.8779908814   -1.0830265205
C        9.3732523691   -3.0893370655   -1.8118433547
C        8.8867644383   -1.7064056969   -2.2673009276
O        9.4196025435   -1.1123936223   -3.2245659968
H        8.5427757743   -4.1650537491   -0.1206107987
H       10.2308510099   -2.9537429257   -1.1447835565
H        9.7233957553   -3.6052210863   -2.7137319423
N        7.8575969766   -1.2081452270   -1.5378643000
C        7.2829700424    0.0428075876   -2.0310656857
C        6.7795065967    0.8876447488   -0.8408298521
O        6.0686382961    0.3822351905    0.0629424557
C        6.1400564634   -0.2817599041   -3.0143417176
C        5.0645510199   -1.1633865091   -2.3542650418
C        3.9436954671   -1.6505268744   -3.3000331140
N        4.2247789366   -2.9297294402   -3.9623345822
C        4.8185887143   -2.9641644800   -5.1565377391
N        5.1676625989   -1.8007786522   -5.7245035988
N        5.0241796541   -4.1397124722   -5.7604515553
H        7.4391622246   -1.7054849032   -0.7538042077
H        8.0676069033    0.5675298306   -2.5849722628
H        5.6897175778    0.6531819641   -3.3714120167
H        6.5918770417   -0.8080797823   -3.8621589931
H        5.5490800533   -2.0436649876   -1.9274212386
H        4.5958576466   -0.5897046171   -1.5545459884
H        3.0353299391   -1.8104095894   -2.7147167733
H        3.6942486279   -0.8840092557   -4.0463717988
H        3.9408185837   -3.8031207404   -3.5149494001
H        5.0379899962   -0.8689998729   -5.3511875036
H        5.6171870424   -1.8371084006   -6.6312451553
H        4.7192836405   -5.0371014849   -5.3972865480
H        5.4886430386   -4.1575500968   -6.6598532744