30   
Iteration 0 Energy -1011.84502796
H       -0.5218254006   -2.8120591031   -2.8010627824
C       -0.4608458040   -2.9660075929   -1.7514139881
C       -0.3918688832   -3.1409490586   -0.5588130248
C       -0.3128953072   -3.3378831657    0.7867367629
N       -0.2459177175   -3.5068266383    1.9413504366
H        2.9540116067    0.7237578353   -2.6970975685
C        2.5341520890    1.4215243671   -2.0153256850
C        2.0563119712    2.2142591231   -1.2405849083
C        1.5174922568    3.1089597620   -0.3658775797
N        1.0556467874    3.8767028801    0.3838715590
H       -0.5778066696    1.4175257050    3.7147570662
C       -1.2865695221    1.3895350705    2.9230219756
C       -2.0913002644    1.3575457739    2.0233230091
C       -2.9989965550    1.3215578152    1.0096621735
N       -3.7777359938    1.2905681842    0.1389535070
H       -2.6151249960   -1.7614106433    2.5191571062
C       -2.7210895409   -1.6764390743    1.4655096499
C       -2.8420490686   -1.5794715190    0.2679103589
C       -2.9780035791   -1.4705079775   -1.0826377564
N       -3.0949644448   -1.3775390843   -2.2412500921
H        2.3752052716   -2.1372848782    2.4391838648
C        2.3772046026   -2.1512801955    1.3775390843
C        2.3782042681   -2.1672748438    0.1699431381
C        2.3792039337   -2.1852688231   -1.1916012979
N        2.3812032647   -2.2002638059   -2.3602102888
H       -0.3918688832   -0.0049983276   -0.7007655284
C        0.2609127003    0.2269240727    0.1049648794
C        1.0026645149    0.4908357695    1.0206584942
C        1.8383848882    0.7877364285    2.0543126402
N        2.5551450649    1.0436508011    2.9400162894
30   
Iteration 1 Energy -1011.85094448
H       -0.5201555340   -2.8112511926   -2.7916392796
C       -0.4754762489   -2.9991486419   -1.7445937282
C       -0.4094050388   -3.1938401633   -0.5536196118
C       -0.3318325513   -3.3866305996    0.7902908243
N       -0.2603452446   -3.5206783007    1.9495905446
H        2.9468466625    0.7061127309   -2.6920278721
C        2.5526926102    1.4476659878   -2.0384181761
C        2.0739544194    2.2485304514   -1.2706127787
C        1.5291870380    3.1319577792   -0.3872594281
N        1.0611015888    3.8784212564    0.3821171268
H       -0.5722364650    1.4255166286    3.7100957265
C       -1.3186457233    1.3973621592    2.9521734679
C       -2.1264941468    1.3848406915    2.0540626365
C       -3.0006922606    1.3809716139    1.0106888454
N       -3.7783982142    1.3182387123    0.1390413250
H       -2.6079030103   -1.7700709924    2.5149800143
C       -2.7474996493   -1.7001995670    1.4635202412
C       -2.8862067312   -1.6133273671    0.2667856659
C       -3.0288810162   -1.4461152636   -1.0766305798
N       -3.0869890651   -1.3743396506   -2.2434414792
H        2.3691751576   -2.1438254309    2.4330630160
C        2.4437204629   -2.1852250909    1.3715604263
C        2.4710373353   -2.1927211482    0.1641658680
C        2.4330224011   -2.1717545036   -1.1950230535
N        2.4093973063   -2.1685974417   -2.3651647256
H       -0.3932275009   -0.0007751356   -0.7033530653
C        0.2475141095    0.2286875442    0.1126129198
C        0.9840213494    0.4847530127    1.0326123223
C        1.8366891770    0.8027024755    2.0433238021
N        2.5430287825    1.0337394501    2.9480990075
30   
Iteration 2 Energy -1011.85047341
H       -0.5199839085   -2.8138920564   -2.7497974685
C       -0.5135048327   -3.1097719983   -1.7183119718
C       -0.4722957262   -3.3962483493   -0.5386407153
C       -0.3858143581   -3.5305425650    0.8060639119
N       -0.3098586322   -3.5840663476    1.9735824520
H        2.9211471988    0.6575459524   -2.6717354599
C        2.6035286443    1.5221295482   -2.1142702618
C        2.1383880521    2.3714734925   -1.3805865273
C        1.5764800391    3.2124659353   -0.4627787270
N        1.0816569092    3.8827297157    0.3665093319
H       -0.5714462303    1.4458779209    3.6978235883
C       -1.4286424133    1.4254287586    3.0523961636
C       -2.2011177168    1.5467772686    2.1230880150
C       -3.0732005824    1.4957686430    1.0786755477
N       -3.7454509536    1.4629149635    0.1154877071
H       -2.5841837715   -1.8087067258    2.4902328627
C       -2.8318897586   -1.8080649219    1.4499318827
C       -3.1010275208   -1.6042160230    0.2826690988
C       -3.1299399801   -1.5057618225   -1.0754668169
N       -3.0939074589   -1.2989882813   -2.2357094639
H        2.3693052780   -2.1830827127    2.3936272628
C        2.6699703304   -2.2949516007    1.3561035075
C        2.7416531173   -2.2501057389    0.1449597162
C        2.6885562282   -2.1714817916   -1.2108461411
N        2.4903645244   -2.0251495362   -2.3696048419
H       -0.4048152819    0.0137658318   -0.7084999692
C        0.1935667118    0.2111150905    0.1471229723
C        0.9636132346    0.5260462912    1.0146921940
C        1.7688454223    0.7703997743    2.0744090366
N        2.5170034377    1.0315913008    2.9458731237
30   
Iteration 3 Energy -1011.86165232
H       -0.5315267934   -2.8329639511   -2.7474627175
C       -0.4966001647   -3.1209099350   -1.7209299941
C       -0.4548747199   -3.3674574560   -0.5373695679
C       -0.3849970688   -3.5352192256    0.8077780423
N       -0.3010533456   -3.5995196896    1.9729807586
H        2.9356739979    0.6841206324   -2.6886957078
C        2.5767265717    1.4982027909   -2.1002062045
C        2.1398232505    2.3620478907   -1.3735524653
C        1.5897698690    3.2200163507   -0.4679321413
N        1.0877927693    3.8934552736    0.3491547162
H       -0.6065013248    1.4322940500    3.7341674526
C       -1.3832842311    1.4826484282    3.0092078457
C       -2.2230318631    1.5097382154    2.1418534820
C       -3.0691913026    1.5012856061    1.0770339541
N       -3.7509640134    1.4778900149    0.1250513610
H       -2.5981703312   -1.8403399760    2.4870545412
C       -2.8560090094   -1.7573182182    1.4573929025
C       -3.0787610447   -1.6311819360    0.2763153156
C       -3.1177457825   -1.4805895747   -1.0750175536
N       -3.1203868557   -1.3111364880   -2.2331628561
H        2.4336030217   -2.2252017489    2.3973318239
C        2.6047214700   -2.2467491251    1.3468122226
C        2.7421627494   -2.2706606887    0.1451340443
C        2.6623126737   -2.1558997026   -1.2073371427
N        2.5314754417   -2.0289672340   -2.3668085207
H       -0.4266982882    0.0029980153   -0.6995470528
C        0.2198854425    0.2274214448    0.1117662981
C        0.9470895559    0.4929668753    1.0355549245
C        1.7809275356    0.7832711771    2.0655015115
N        2.5048317942    1.0267581993    2.9549307387
30   
Iteration 4 Energy -1011.85422183
H       -0.5419901341   -2.8730875307   -2.7461516034
C       -0.4818300862   -3.1184963209   -1.7165694638
C       -0.4451142195   -3.3756280612   -0.5380497584
C       -0.3593850800   -3.5180348520    0.8135809191
N       -0.3066546362   -3.6430098827    1.9738199859
H        2.9386081846    0.7051745735   -2.7076431997
C        2.5776444515    1.4988108918   -2.1031017161
C        2.1334027891    2.3412011859   -1.3636359716
C        1.5988859266    3.2268439742   -0.4795433317
N        1.1099289184    3.9230547318    0.3193210559
H       -0.6383536572    1.4455477610    3.7646454816
C       -1.3836338870    1.5044932183    3.0116953398
C       -2.2139441529    1.5058241221    2.1365727048
C       -3.0750475896    1.5287969032    1.0838585470
N       -3.7622711645    1.5032545386    0.1400098766
H       -2.6304788669   -1.8762024176    2.4821900776
C       -2.9012629610   -1.7256654132    1.4646943070
C       -2.9872539324   -1.6697767744    0.2605496765
C       -3.2117301533   -1.4204709055   -1.0635270072
N       -3.1145343329   -1.3347566557   -2.2285099921
H        2.4940849783   -2.2618296057    2.3945968528
C        2.6197183886   -2.2731948724    1.3460774618
C        2.6636185062   -2.2153446351    0.1436043786
C        2.7139519126   -2.1877692785   -1.2139925166
N        2.5731647847   -2.0011035782   -2.3597659030
H       -0.4445450369   -0.0029865910   -0.6993816454
C        0.2189835874    0.2282624143    0.0982809276
C        0.9507942311    0.4699590823    1.0310102393
C        1.7744764907    0.7841419721    2.0693274880
N        2.4877667457    1.0229920202    2.9630368031
30   
Iteration 5 Energy -1011.86166131
H       -0.5355819985   -2.8516103082   -2.7467594848
C       -0.4906888279   -3.1177035096   -1.7189579299
C       -0.4510595952   -3.3721566470   -0.5389208279
C       -0.3717588004   -3.5254028575    0.8106450437
N       -0.3043963188   -3.6194447964    1.9736931586
H        2.9353349112    0.6933272015   -2.6960207655
C        2.5794876966    1.5009868432   -2.1021996384
C        2.1358430831    2.3509355953   -1.3682699612
C        1.5926981397    3.2218575380   -0.4729684820
N        1.0988901171    3.9066354996    0.3349775493
H       -0.6188968794    1.4404317221    3.7462807730
C       -1.3870262631    1.4880278070    3.0138568799
C       -2.2169595264    1.5082821190    2.1375278705
C       -3.0704334576    1.5163417400    1.0782192037
N       -3.7570164025    1.4870650451    0.1329358517
H       -2.6134576907   -1.8551672583    2.4856730337
C       -2.8762710619   -1.7445283654    1.4618783851
C       -3.0304391280   -1.6517724239    0.2687179932
C       -3.1685339735   -1.4477263934   -1.0701178471
N       -3.1138164863   -1.3242655140   -2.2320950592
H        2.4578360281   -2.2391497684    2.3957131603
C        2.6170886230   -2.2643437818    1.3476176716
C        2.7008691337   -2.2404843388    0.1448331744
C        2.6875983016   -2.1725541948   -1.2120146465
N        2.5486559872   -2.0161652330   -2.3626732982
H       -0.4342870542    0.0005674114   -0.7013848646
C        0.2168508276    0.2267933816    0.1070425125
C        0.9497698163    0.4824613885    1.0330662770
C        1.7795549776    0.7852531328    2.0675217399
N        2.4971458259    1.0245089804    2.9591825395
30   
Iteration 6 Energy -1011.86423185
H       -0.5362557453   -2.8595311951   -2.7475414795
C       -0.4925078355   -3.1215470310   -1.7185984205
C       -0.4434549732   -3.3652843277   -0.5366850441
C       -0.3724480628   -3.5363676890    0.8110817185
N       -0.3044123677   -3.6237688278    1.9748847776
H        2.9344210435    0.6941851710   -2.6998481780
C        2.5833779879    1.5037039523   -2.1051227832
C        2.1359712087    2.3503488153   -1.3693938248
C        1.5918916269    3.2199647075   -0.4737515915
N        1.1050460292    3.9160752193    0.3284999321
H       -0.6218275165    1.4478917997    3.7508159743
C       -1.3941668130    1.4829839590    3.0213768308
C       -2.2162452531    1.5173683824    2.1372709090
C       -3.0665291352    1.5215105143    1.0752718999
N       -3.7629494874    1.4936069132    0.1373572915
H       -2.6238094943   -1.8593121057    2.4878556630
C       -2.8677463077   -1.7543935895    1.4598806803
C       -3.0515838629   -1.6370737540    0.2724064883
C       -3.1502472409   -1.4561048726   -1.0724612236
N       -3.1281163295   -1.3198211405   -2.2326616641
H        2.4669897968   -2.2456209405    2.3974822789
C        2.6218009499   -2.2699396998    1.3472509053
C        2.7096545515   -2.2499070259    0.1440389219
C        2.6740985727   -2.1521993557   -1.2109881621
N        2.5686414258   -2.0189198474   -2.3659219947
H       -0.4358657474    0.0009360026   -0.7030812779
C        0.2130837446    0.2226891436    0.1090826394
C        0.9484650954    0.4838859158    1.0307891370
C        1.7801365776    0.7811992502    2.0657280306
N        2.4915875661    1.0244416711    2.9619815780
30   
Iteration 7 Energy -1011.86535804
H       -0.5397154568   -2.8767755472   -2.7483727966
C       -0.4891607848   -3.1277049215   -1.7161847401
C       -0.4385626434   -3.3728293222   -0.5338815246
C       -0.3670251646   -3.5406657286    0.8140270667
N       -0.3069284028   -3.6440541255    1.9769625548
H        2.9368004077    0.6977967581   -2.7094581978
C        2.5842340276    1.5042758726   -2.1112890034
C        2.1385223732    2.3508796818   -1.3734039611
C        1.5986111721    3.2270778236   -0.4815709651
N        1.1153010242    3.9323801123    0.3160621342
H       -0.6343791357    1.4569541148    3.7653572913
C       -1.4015592552    1.4931520207    3.0298265452
C       -2.2189990934    1.5231746845    2.1413123032
C       -3.0662113520    1.5413681393    1.0766486100
N       -3.7702868135    1.5101476499    0.1435574637
H       -2.6423549056   -1.8722551791    2.4903870608
C       -2.8692496270   -1.7665794871    1.4580423583
C       -3.0713898288   -1.6221396718    0.2756282409
C       -3.1414879351   -1.4614931765   -1.0735597959
N       -3.1477790106   -1.3133355285   -2.2331230730
H        2.4923238302   -2.2664016230    2.4001670220
C        2.6328950749   -2.2822593978    1.3467661808
C        2.7165357694   -2.2501745727    0.1425869297
C        2.6818389767   -2.1444632772   -1.2122262858
N        2.5981372937   -2.0026628863   -2.3703392531
H       -0.4417100926   -0.0003550749   -0.7038583550
C        0.2086596813    0.2208925905    0.1075666315
C        0.9446428486    0.4756439068    1.0297648432
C        1.7748648682    0.7818379151    2.0631193434
N        2.4804321577    1.0195682674    2.9664853839
30   
Iteration 8 Energy -1011.86657698
H       -0.5439987115   -2.9013485822   -2.7498222992
C       -0.4867616585   -3.1428348987   -1.7145113157
C       -0.4231603253   -3.3642980342   -0.5277081649
C       -0.3663022121   -3.5640849371    0.8163694307
N       -0.3060376496   -3.6654195397    1.9801667595
H        2.9402969363    0.7032211077   -2.7240603624
C        2.5852751642    1.5039179596   -2.1191000582
C        2.1422545372    2.3521094573   -1.3799268803
C        1.6066657726    3.2339089860   -0.4906481462
N        1.1314785688    3.9579629473    0.2966495954
H       -0.6532921129    1.4718067220    3.7872846986
C       -1.4129910367    1.4996664466    3.0428132399
C       -2.2168076095    1.5504271312    2.1423682649
C       -3.0711787689    1.5473739543    1.0834009318
N       -3.7788618645    1.5416769849    0.1510009983
H       -2.6690688544   -1.8929406218    2.4936939716
C       -2.8810829738   -1.7741141611    1.4584575235
C       -3.0749545453   -1.6174375501    0.2759581595
C       -3.1511224349   -1.4526055133   -1.0723996051
N       -3.1673045371   -1.3106320976   -2.2342583265
H        2.5302765530   -2.2983241847    2.4041433105
C        2.6468767715   -2.2943704056    1.3462415871
C        2.7227366751   -2.2615066056    0.1401103835
C        2.6908505286   -2.1187139173   -1.2128271190
N        2.6407178032   -1.9862178493   -2.3764082968
H       -0.4500315059   -0.0015052662   -0.7055705643
C        0.2016305160    0.2110200477    0.1073557409
C        0.9415043983    0.4811732549    1.0212683352
C        1.7639337663    0.7633586167    2.0674198824
N        2.4654588111    1.0197305697    2.9695383365
30   
Iteration 9 Energy -1011.86827800
H       -0.5475954279   -2.9257554147   -2.7481854978
C       -0.4832039819   -3.1536760627   -1.7107679864
C       -0.4189413770   -3.3794019045   -0.5250077996
C       -0.3593643678   -3.5747707177    0.8201829442
N       -0.3087708583   -3.6927747131    1.9827776981
H        2.9405376132    0.7064543633   -2.7353911994
C        2.5908733913    1.5098167053   -2.1299649539
C        2.1462319887    2.3544455352   -1.3883654035
C        1.6157330810    3.2442507488   -0.5040176942
N        1.1493522132    3.9803398421    0.2765375054
H       -0.6720776382    1.4855761344    3.8074514788
C       -1.4247607328    1.5148655765    3.0560835882
C       -2.2232755324    1.5639838278    2.1505455736
C       -3.0734209705    1.5760612948    1.0878131513
N       -3.7864738763    1.5676617067    0.1603978215
H       -2.6930714891   -1.9152158962    2.4936692927
C       -2.8983904218   -1.7784323505    1.4595908276
C       -3.0814126173   -1.6177660340    0.2759885910
C       -3.1658238082   -1.4466493586   -1.0714047513
N       -3.1848476829   -1.3048994897   -2.2324218511
H        2.5655740893   -2.3292154220    2.4031206850
C        2.6696175610   -2.3155342206    1.3437810783
C        2.7324361009   -2.2576822606    0.1377348531
C        2.7135713144   -2.1084050573   -1.2151077244
N        2.6811105893   -1.9626371966   -2.3762508213
H       -0.4589349010   -0.0043461264   -0.7076872139
C        0.1946880780    0.2094817196    0.1032368145
C        0.9337267455    0.4705770620    1.0213322046
C        1.7544715209    0.7625087806    2.0665210204
N        2.4494413978    1.0121389516    2.9748077802
30   
Iteration 10 Energy -1011.86988799
H       -0.5509136225   -2.9564537025   -2.7458515096
C       -0.4799372877   -3.1767076735   -1.7071286053
C       -0.4110506578   -3.3924656224   -0.5199048956
C       -0.3565909266   -3.5975521847    0.8240270906
N       -0.3072697038   -3.7255201306    1.9856328085
H        2.9449910108    0.7117337474   -2.7519916332
C        2.5911575695    1.5115945585   -2.1442981472
C        2.1536484472    2.3593743264   -1.4021372752
C        1.6350323486    3.2655312851   -0.5270304349
N        1.1725626870    4.0083326388    0.2494315230
H       -0.7005559444    1.5031170202    3.8376069253
C       -1.4387240460    1.5445381085    3.0727419877
C       -2.2323861339    1.5809062338    2.1629365423
C       -3.0819935710    1.6134778988    1.1000780105
N       -3.7928413345    1.6042114078    0.1710863364
H       -2.7283132228   -1.9424150065    2.4945259651
C       -2.9205299195   -1.7898136103    1.4604675687
C       -3.0955271410   -1.6215551277    0.2767747153
C       -3.1822571024   -1.4344980468   -1.0686738146
N       -3.2085384895   -1.2968071850   -2.2296047336
H        2.6151060625   -2.3782987859    2.4000238855
C        2.6988413114   -2.3390847165    1.3394834399
C        2.7488607808   -2.2502225340    0.1352769223
C        2.7575340079   -2.1050035686   -1.2173389413
N        2.7275821832   -1.9201442523   -2.3733243554
H       -0.4701168344   -0.0084946823   -0.7117313495
C        0.1850727385    0.2050528574    0.0976210354
C        0.9194047350    0.4624680144    1.0206900553
C        1.7375496333    0.7543487936    2.0673769367
N        2.4272024200    1.0013499674    2.9802339586
30   
Iteration 11 Energy -1011.87132420
H       -0.5554880593   -3.0008130299   -2.7431322639
C       -0.4704999218   -3.1989156342   -1.7007299499
C       -0.4137643342   -3.4341434500   -0.5159518276
C       -0.3388624018   -3.6056498269    0.8317044608
N       -0.3090467985   -3.7793853557    1.9881120801
H        2.9501766307    0.7175801506   -2.7748685483
C        2.5922178504    1.5129916098   -2.1635249460
C        2.1670362035    2.3722538983   -1.4267820868
C        1.6583001522    3.2880600630   -0.5553654644
N        1.2077896211    4.0507704828    0.2090378448
H       -0.7403519481    1.5304060054    3.8799096592
C       -1.4587245651    1.5781327543    3.0968586740
C       -2.2471369479    1.6229585525    2.1829712785
C       -3.0916666090    1.6474980462    1.1160227509
N       -3.8021766509    1.6612974760    0.1865979062
H       -2.7770284713   -1.9794582200    2.4959549176
C       -2.9581288743   -1.8096838214    1.4623404426
C       -3.1026233706   -1.6176353789    0.2781660418
C       -3.2190716179   -1.4297972787   -1.0648755117
N       -3.2344498521   -1.2792462203   -2.2252435931
H        2.6828523881   -2.4485207691    2.3944189775
C        2.7367692293   -2.3655925220    1.3338752327
C        2.7876910622   -2.2625492670    0.1309435262
C        2.8040496080   -2.0722471098   -1.2167567685
N        2.7969613651   -1.8704120012   -2.3699603579
H       -0.4849218813   -0.0150667209   -0.7186500655
C        0.1691755660    0.2015383211    0.0903261817
C        0.9025454703    0.4458301717    1.0178030675
C        1.7076790768    0.7479777476    2.0710120651
N        2.3976980737    0.9828213632    2.9867862883
30   
Iteration 12 Energy -1011.87346877
H       -0.5587014818   -3.0432123745   -2.7391996719
C       -0.4710121021   -3.2317061360   -1.6956115457
C       -0.4008206371   -3.4505302143   -0.5086618673
C       -0.3393880396   -3.6535900813    0.8359299153
N       -0.3061024594   -3.8177076218    1.9936539915
H        2.9477988179    0.7183159664   -2.7935178026
C        2.6068126220    1.5273685790   -2.1884473096
C        2.1768477300    2.3816198346   -1.4489287203
C        1.6773051313    3.3097521245   -0.5852391341
N        1.2446414947    4.0925599837    0.1694655048
H       -0.7749800791    1.5601709349    3.9174933842
C       -1.4868408596    1.6067492374    3.1283214089
C       -2.2611612038    1.6593598322    2.2018188206
C       -3.1001993011    1.6996459853    1.1301686599
N       -3.8123863846    1.7125084844    0.2022331501
H       -2.8223325325   -2.0202201340    2.4959568126
C       -2.9900750816   -1.8206995321    1.4642930676
C       -3.1366652708   -1.6232988503    0.2808835861
C       -3.2341294886   -1.4213536780   -1.0621724547
N       -3.2684694243   -1.2625080297   -2.2210441169
H        2.7423779397   -2.5086544891    2.3886158193
C        2.7902989016   -2.4121536813    1.3283554225
C        2.8265474455   -2.2613459732    0.1272512877
C        2.8511195125   -2.0439787365   -1.2180765286
N        2.8696835314   -1.8202319874   -2.3678421447
H       -0.5007330692   -0.0198814566   -0.7263079752
C        0.1538519356    0.1931886875    0.0835150469
C        0.8823094365    0.4395057973    1.0151886359
C        1.6858087718    0.7307044615    2.0736617936
N        2.3655941357    0.9706231099    2.9952429769
30   
Iteration 13 Energy -1011.87523305
H       -0.5588957725   -3.0943367707   -2.7319687081
C       -0.4742036106   -3.2846176058   -1.6887975843
C       -0.3925337140   -3.4913080444   -0.5007669960
C       -0.3412379040   -3.7070950359    0.8422409967
N       -0.2991835936   -3.8720486585    1.9993103184
H        2.9514545094    0.7206094088   -2.8173502141
C        2.6117693209    1.5373346623   -2.2221001458
C        2.1970685671    2.4022149356   -1.4857539408
C        1.7168026459    3.3524138666   -0.6353662829
N        1.2909982014    4.1417551518    0.1158529527
H       -0.8235637293    1.6007496721    3.9689593902
C       -1.5261299364    1.6561501674    3.1721624303
C       -2.2854139603    1.7122854218    2.2336604362
C       -3.1171826544    1.7687148569    1.1567889696
N       -3.8200209576    1.7852570553    0.2217917074
H       -2.8845393073   -2.0650758804    2.4956565815
C       -3.0376716671   -1.8554767009    1.4646394983
C       -3.1827327499   -1.6304833444    0.2856755990
C       -3.2689091275   -1.4084525760   -1.0552843604
N       -3.3039923916   -1.2369662351   -2.2122559265
H        2.8202765896   -2.6005990207    2.3726153817
C        2.8661734522   -2.4558908059    1.3174811429
C        2.8963603673   -2.2754626967    0.1212296072
C        2.9379638060   -2.0047599968   -1.2146535912
N        2.9540605652   -1.7463030137   -2.3568905929
H       -0.5194007303   -0.0255930208   -0.7411692060
C        0.1279075683    0.1811701324    0.0764916185
C        0.8521927707    0.4277008347    1.0114575540
C        1.6493722726    0.7121632597    2.0769234558
N        2.3202111575    0.9469500311    3.0064199259
30   
Iteration 14 Energy -1011.87583159
H       -0.5577079192   -3.1642289101   -2.7227067119
C       -0.4710847127   -3.3570402964   -1.6805235125
C       -0.4026315796   -3.5529996855   -0.4903733787
C       -0.3268972848   -3.7806029695    0.8490566392
N       -0.2916494591   -3.9424445878    2.0065369283
H        2.9549932709    0.7219669043   -2.8497514736
C        2.6182998973    1.5464256776   -2.2640922742
C        2.2321445793    2.4456861612   -1.5519206605
C        1.7647796173    3.3968931664   -0.6964411149
N        1.3613637008    4.2162478792    0.0345393979
H       -0.8929036506    1.6608797291    4.0423661957
C       -1.5776591326    1.7226810167    3.2310068110
C       -2.3264049216    1.8009037206    2.2860469371
C       -3.1362410397    1.8460341273    1.1922607099
N       -3.8299401155    1.8906294519    0.2510953799
H       -2.9721441246   -2.1258399976    2.4953805033
C       -3.1068036560   -1.8986586070    1.4665060221
C       -3.2471382292   -1.6532018592    0.2914939418
C       -3.3157472027   -1.3863279798   -1.0429400408
N       -3.3486680223   -1.1993809876   -2.1975025020
H        2.9254234225   -2.7276095522    2.3452149114
C        2.9635423704   -2.5317101876    1.2982534336
C        3.0288414454   -2.2646570730    0.1185618917
C        3.0324066293   -1.9791858806   -1.2120902252
N        3.0756313876   -1.6305216694   -2.3324843564
H       -0.5448801187   -0.0341699563   -0.7641835085
C        0.0927120739    0.1633051711    0.0639504454
C        0.8055527516    0.4175157454    1.0054823589
C        1.5944349301    0.6758933159    2.0842290298
N        2.2553750768    0.9145181915    3.0200282427
30   
Iteration 15 Energy -1011.87769215
H       -0.5571818551   -3.2039891931   -2.7208762364
C       -0.4706219462   -3.3818140373   -1.6759020866
C       -0.3964434074   -3.5901626272   -0.4879218789
C       -0.3301118601   -3.8089468984    0.8536190309
N       -0.2803126440   -3.9779402007    2.0096318368
H        2.9510043001    0.7190367912   -2.8643094476
C        2.6354294102    1.5622883528   -2.2911483893
C        2.2396015812    2.4515653130   -1.5736614866
C        1.7871124318    3.4258621198   -0.7359379060
N        1.3999502729    4.2539469740   -0.0048368924
H       -0.9297938356    1.6927616601    4.0820375021
C       -1.6016122727    1.7611550544    3.2603134501
C       -2.3408137071    1.8320670687    2.3076124649
C       -3.1501931910    1.8926138057    1.2144324929
N       -3.8331465341    1.9361265024    0.2652366174
H       -3.0169435526   -2.1612796989    2.4959489092
C       -3.1482626670   -1.9096422199    1.4705279560
C       -3.2667165977   -1.6591636773    0.2947752899
C       -3.3416215289   -1.3916447319   -1.0384247301
N       -3.3680537593   -1.1717237980   -2.1881686938
H        2.9767252440   -2.7898141582    2.3310813311
C        3.0221614050   -2.5684821321    1.2899709419
C        3.0662796297   -2.2807908774    0.1136182174
C        3.0988876776   -1.9267918843   -1.2022972819
N        3.1265068151   -1.5946884986   -2.3236357454
H       -0.5596258072   -0.0412480798   -0.7747443272
C        0.0781572880    0.1630225300    0.0513376207
C        0.7826343036    0.3999244306    1.0039408274
C        1.5606570558    0.6643482803    2.0891779435
N        2.2233477343    0.8944038946    3.0256026871
30   
Iteration 16 Energy -1011.87830367
H       -0.5534014185   -3.2549599511   -2.7174436147
C       -0.4734499920   -3.4312964886   -1.6717209631
C       -0.3936187400   -3.6353996621   -0.4833746435
C       -0.3213617332   -3.8504553237    0.8588424422
N       -0.2687124970   -4.0271786230    2.0138197481
H        2.9562743796    0.7205301542   -2.8851363731
C        2.6373537163    1.5708753435   -2.3252391202
C        2.2612431438    2.4738986691   -1.6138501676
C        1.8269267233    3.4663981290   -0.7878538957
N        1.4505283118    4.3069569224   -0.0656938270
H       -0.9790543624    1.7438468824    4.1366480857
C       -1.6418790924    1.8077973053    3.3077138519
C       -2.3645601349    1.8873591844    2.3421857796
C       -3.1606656121    1.9525492951    1.2393519463
N       -3.8411720221    2.0009805882    0.2894294083
H       -3.0845343085   -2.2012017894    2.4986377437
C       -3.1994890590   -1.9448775518    1.4729325950
C       -3.3084146319   -1.6695583724    0.3008833761
C       -3.3707386818   -1.3763448502   -1.0279209728
N       -3.3945466505   -1.1431350355   -2.1745221935
H        3.0498469046   -2.8849670889    2.3062564374
C        3.1019072692   -2.6066425118    1.2778501586
C        3.1344615755   -2.2954948317    0.1091627736
C        3.1806277574   -1.8919442405   -1.1925570548
N        3.2038230900   -1.5221352197   -2.3034228266
H       -0.5772729768   -0.0456135837   -0.7960311226
C        0.0486507758    0.1505359989    0.0413768008
C        0.7474477166    0.3822114373    0.9997313663
C        1.5206500941    0.6445728843    2.0892693508
N        2.1701304359    0.8636924012    3.0376749283
30   
Iteration 17 Energy -1011.87796825
H       -0.5478874776   -3.3251646569   -2.7136225102
C       -0.4779807477   -3.5030657524   -1.6673356448
C       -0.3857267275   -3.6955939427   -0.4779155527
C       -0.3164350126   -3.9124404789    0.8644220509
N       -0.2441748109   -4.0885582904    2.0186019616
H        2.9618921805    0.7218803728   -2.9123838791
C        2.6452004867    1.5857452014   -2.3723900019
C        2.2863166088    2.5045092230   -1.6719889311
C        1.8873063902    3.5287215992   -0.8666085857
N        1.5217550105    4.3802642451   -0.1527254183
H       -1.0494583305    1.8162352202    4.2151499797
C       -1.6967098797    1.8878121165    3.3744705626
C       -2.3934248226    1.9480373625    2.3888658611
C       -3.1842687970    2.0460182863    1.2844165990
N       -3.8451965110    2.0821884814    0.3203172489
H       -3.1813343856   -2.2547464818    2.5030600808
C       -3.2776842047   -1.9972639200    1.4765291991
C       -3.3551936122   -1.6761224029    0.3122688595
C       -3.4243060768   -1.3680480546   -1.0121676888
N       -3.4177540355   -1.0948954545   -2.1510535757
H        3.1533793781   -3.0112924989    2.2668620291
C        3.1986455809   -2.6773557706    1.2555114149
C        3.2591204469   -2.3005273464    0.1074383738
C        3.2756204409   -1.8450840723   -1.1759507250
N        3.3150245377   -1.4289740462   -2.2694403074
H       -0.6027503944   -0.0511312557   -0.8280444694
C        0.0045722866    0.1332334467    0.0261588180
C        0.7033001515    0.3585144833    0.9861213778
C        1.4486495098    0.6088553373    2.0985624972
N        2.0965027947    0.8192491292    3.0498703945
30   
Iteration 18 Energy -1011.87883402
H       -0.5484102247   -3.3479821495   -2.7135212977