30   
Iteration 0 Energy -1011.84502796
H       -0.5218254006   -2.8120591031   -2.8010627824
C       -0.4608458040   -2.9660075929   -1.7514139881
C       -0.3918688832   -3.1409490586   -0.5588130248
C       -0.3128953072   -3.3378831657    0.7867367629
N       -0.2459177175   -3.5068266383    1.9413504366
H        2.9540116067    0.7237578353   -2.6970975685
C        2.5341520890    1.4215243671   -2.0153256850
C        2.0563119712    2.2142591231   -1.2405849083
C        1.5174922568    3.1089597620   -0.3658775797
N        1.0556467874    3.8767028801    0.3838715590
H       -0.5778066696    1.4175257050    3.7147570662
C       -1.2865695221    1.3895350705    2.9230219756
C       -2.0913002644    1.3575457739    2.0233230091
C       -2.9989965550    1.3215578152    1.0096621735
N       -3.7777359938    1.2905681842    0.1389535070
H       -2.6151249960   -1.7614106433    2.5191571062
C       -2.7210895409   -1.6764390743    1.4655096499
C       -2.8420490686   -1.5794715190    0.2679103589
C       -2.9780035791   -1.4705079775   -1.0826377564
N       -3.0949644448   -1.3775390843   -2.2412500921
H        2.3752052716   -2.1372848782    2.4391838648
C        2.3772046026   -2.1512801955    1.3775390843
C        2.3782042681   -2.1672748438    0.1699431381
C        2.3792039337   -2.1852688231   -1.1916012979
N        2.3812032647   -2.2002638059   -2.3602102888
H       -0.3918688832   -0.0049983276   -0.7007655284
C        0.2609127003    0.2269240727    0.1049648794
C        1.0026645149    0.4908357695    1.0206584942
C        1.8383848882    0.7877364285    2.0543126402
N        2.5551450649    1.0436508011    2.9400162894
30   
Iteration 1 Energy -1011.85932321
H       -0.5323381264   -2.8497309272   -2.7739486756
C       -0.4921792922   -3.0528595038   -1.7299320222
C       -0.4377244387   -3.2570969098   -0.5402298014
C       -0.3661403420   -3.4514303160    0.8035778236
N       -0.3005936108   -3.5975526362    1.9614891502
H        2.9576677810    0.7220844508   -2.7130107171
C        2.5614994735    1.4650974250   -2.0631615714
C        2.0948550760    2.2797474015   -1.3027990020
C        1.5543296071    3.1665227754   -0.4202841212
N        1.0846035853    3.9119844706    0.3488151080
H       -0.6087782501    1.4357545087    3.7424099546
C       -1.3436404279    1.4391638731    2.9736188508
C       -2.1508306039    1.4427100131    2.0754865623
C       -3.0338038662    1.4376028352    1.0404290211
N       -3.7854474755    1.4183486927    0.1447172371
H       -2.6357242541   -1.8174892555    2.5078973815
C       -2.7906927959   -1.7313185912    1.4602909496
C       -2.9379504646   -1.6163660328    0.2674969895
C       -3.0629250988   -1.4684216706   -1.0789720053
N       -3.1417053135   -1.3456039089   -2.2393910749
H        2.4445554610   -2.2035874607    2.4196118547
C        2.5273781854   -2.2155664556    1.3593526036
C        2.5677261514   -2.2024376383    0.1532112405
C        2.5527385654   -2.1606744045   -1.2050596230
N        2.5161735527   -2.1155492093   -2.3735381129
H       -0.4133120473    0.0042911049   -0.6989826143
C        0.2298706473    0.2336047683    0.1146796106
C        0.9675913279    0.4948581474    1.0318941460
C        1.8058111775    0.7888779989    2.0611449642
N        2.5259858198    1.0360364646    2.9501858936
30   
Iteration 2 Energy -1011.86922627
H       -0.5154110998   -2.9381382415   -2.7486829744
C       -0.4498185157   -3.1763604716   -1.7137041083
C       -0.3836843020   -3.4061783476   -0.5285994790
C       -0.3135151561   -3.5970488976    0.8156400429
N       -0.2539407179   -3.7184390278    1.9774448768
H        2.9534333688    0.7186054733   -2.7477750429
C        2.5976414023    1.5196580914   -2.1431487458
C        2.1565273647    2.3701657176   -1.4064077001
C        1.6300613903    3.2652479512   -0.5248536323
N        1.1641491738    3.9994526412    0.2577904501
H       -0.6963554871    1.5004025871    3.8287758723
C       -1.4470872111    1.5364270508    3.0761145866
C       -2.2435844753    1.5763087201    2.1689353069
C       -3.0848237649    1.5941152126    1.1000239354
N       -3.7891612051    1.5827723776    0.1659716743
H       -2.7278564139   -1.9026606901    2.4930613490
C       -2.9375089337   -1.7724988201    1.4592187141
C       -3.1106562584   -1.6154854189    0.2739693533
C       -3.2061004590   -1.4286353354   -1.0696913101
N       -3.2243015814   -1.2775834285   -2.2297585475
H        2.5746946541   -2.3610744160    2.4015491828
C        2.6874207573   -2.3388897655    1.3437586209
C        2.7451980865   -2.2622904847    0.1392685107
C        2.7187968929   -2.1183942459   -1.2120873959
N        2.6547015395   -1.9654823344   -2.3708992616
H       -0.4513168359   -0.0127992594   -0.7125850940
C        0.1917078666    0.2016671967    0.1059981149
C        0.9232930207    0.4587359319    1.0310340489
C        1.7455878123    0.7564103779    2.0716186773
N        2.4489090896    1.0029898724    2.9750200059
30   
Iteration 3 Energy -1011.87408482
H       -0.5095279254   -3.0354162903   -2.7399373863
C       -0.4381922306   -3.2640974729   -1.7033100612
C       -0.3703517306   -3.4946054670   -0.5185572347
C       -0.3002774665   -3.6846181346    0.8270483114
N       -0.2413533001   -3.8041163990    1.9892333520
H        2.9413606979    0.7057728649   -2.7899658087
C        2.6169829158    1.5384842390   -2.2099363756
C        2.2035181066    2.4177605625   -1.4906687740
C        1.7053152767    3.3416478279   -0.6229343820
N        1.2616339019    4.0983477859    0.1510402272
H       -0.7938906961    1.5853361563    3.9367016799
C       -1.5278983188    1.6344400889    3.1683836297
C       -2.3036676133    1.6921421034    2.2437795531
C       -3.1195140532    1.7218494475    1.1547249133
N       -3.7956748809    1.7202009985    0.2001020464
H       -2.8376377561   -2.0050519587    2.4943200742
C       -3.0371313931   -1.8300876950    1.4648980815
C       -3.2031172660   -1.6307632761    0.2845577537
C       -3.2753122611   -1.4093708404   -1.0566049631
N       -3.2672373844   -1.2300962169   -2.2127081558
H        2.7254234679   -2.5473072399    2.3785766644
C        2.8256656594   -2.4495840396    1.3238316332
C        2.8840394383   -2.2901066649    0.1273097883
C        2.8631937594   -2.0415105051   -1.2097698310
N        2.8054229179   -1.7847980336   -2.3501019584
H       -0.4951354838   -0.0323914096   -0.7395798599
C        0.1477208691    0.1755294557    0.0815319648
C        0.8697818338    0.4266715099    1.0169224747
C        1.6711027050    0.7138241355    2.0782055823
N        2.3517582119    0.9529144606    2.9999070972
30   
Iteration 4 Energy -1011.87804015
H       -0.5096446959   -3.1878989755   -2.7384693694
C       -0.4277869442   -3.3816616019   -1.6955865271
C       -0.3523500470   -3.5959678255   -0.5084966822
C       -0.2761692716   -3.7839520205    0.8377146592
N       -0.2132004295   -3.9137344294    1.9984310296
H        2.9213905107    0.6862335223   -2.8540140287
C        2.6328094735    1.5511443637   -2.3006555515
C        2.2604966510    2.4661719339   -1.6034599531
C        1.8139508582    3.4429498066   -0.7663882902
N        1.4174176944    4.2544168807   -0.0228818743
H       -0.9400474219    1.7292837341    4.1056795697
C       -1.6287925801    1.7803427526    3.2968919025
C       -2.3669082020    1.8431150434    2.3423935814
C       -3.1550938280    1.8788404471    1.2326456211
N       -3.8090867127    1.8878958034    0.2627922662
H       -3.0242517648   -2.1507224166    2.5042213323
C       -3.1716042674   -1.9104415469    1.4790628932
C       -3.3014384879   -1.6501365175    0.3063094850
C       -3.3394553436   -1.3775394949   -1.0272316539
N       -3.3096390491   -1.1566892017   -2.1756737531
H        2.9433475263   -2.8402683492    2.3222571523
C        3.0087286861   -2.6063561833    1.2865535378
C        3.0602593190   -2.3128499266    0.1155094642
C        3.0613870720   -1.9130642777   -1.1850701569
N        3.0381318663   -1.5227644500   -2.2874697265
H       -0.5579562298   -0.0530887374   -0.7958184021
C        0.0742741263    0.1430914692    0.0366623580
C        0.7752464079    0.3787916881    0.9921105909
C        1.5429858660    0.6422219245    2.0848483566
N        2.1899991943    0.8636365666    3.0341322079
30   
Iteration 5 Energy -1011.87944416
H       -0.5129318952   -3.2862458362   -2.7430103478
C       -0.4250234574   -3.4498240861   -1.6956455739
C       -0.3410656265   -3.6434865552   -0.5057765429
C       -0.2554192837   -3.8300669222    0.8399717444
N       -0.1843851394   -3.9720294655    1.9987248955
H        2.9178931429    0.6992476818   -2.8943687506
C        2.6362661419    1.5795557701   -2.3604665224
C        2.2869404069    2.5116335870   -1.6742550552
C        1.8781322233    3.5229594760   -0.8605197872
N        1.5191023622    4.3746685326   -0.1435352134
H       -1.0306615497    1.8370296099    4.2181376091
C       -1.6807990086    1.8771276941    3.3776326690
C       -2.3910781454    1.9265984945    2.4015737032
C       -3.1649004255    1.9561732785    1.2816530479
N       -3.8149138268    1.9663966471    0.3092255594
H       -3.1651151805   -2.2370300031    2.5182238424
C       -3.2574507043   -1.9629042061    1.4952008852
C       -3.3425297994   -1.6659827690    0.3272247921
C       -3.3508714634   -1.3546810781   -0.9980544944
N       -3.3080769838   -1.1017628914   -2.1394639711
H        3.0728458076   -3.0319135797    2.2754289368
C        3.1170995856   -2.7063012450    1.2638377036
C        3.1615391914   -2.3317362644    0.1161061572
C        3.1823364106   -1.8598955897   -1.1594910441
N        3.1896982348   -1.4213337720   -2.2430066889
H       -0.6013507207   -0.0552521672   -0.8466195030
C        0.0148529035    0.1268507837    0.0011238702
C        0.6966952984    0.3445751931    0.9746525195
C        1.4416748294    0.5866836680    2.0881505069
N        2.0684966388    0.7919460048    3.0543450869
30   
Iteration 6 Energy -1011.88048605
H       -0.5266512288   -3.3770745982   -2.7513397687
C       -0.4322234583   -3.5110586516   -1.7004940051
C       -0.3337862296   -3.6778186433   -0.5077771450
C       -0.2292887776   -3.8596941013    0.8371270907
N       -0.1407009159   -4.0120306447    1.9933046671
H        2.9267418484    0.7330491291   -2.9241462650
C        2.6354021705    1.6239235534   -2.4137189128
C        2.3033792862    2.5715286658   -1.7403485603
C        1.9318092963    3.6193111617   -0.9560734426
N        1.6123470341    4.5123299549   -0.2714608015
H       -1.1082946517    1.9593588123    4.3270075663
C       -1.7194825767    1.9782666079    3.4572274406
C       -2.4013145385    1.9987475396    2.4601407480
C       -3.1611448558    2.0066118453    1.3304661169
N       -3.8100753250    2.0047215882    0.3572913576
H       -3.3254802105   -2.3213268434    2.5372831540
C       -3.3481616280   -2.0194698417    1.5182527476
C       -3.3673314478   -1.6856596524    0.3575081482
C       -3.3286439765   -1.3297241628   -0.9555234529
N       -3.2592370854   -1.0375928494   -2.0862890938
H        3.1790991615   -3.2129253942    2.2281134202
C        3.2144423842   -2.8071746361    1.2457088718
C        3.2558051635   -2.3609454867    0.1239431235
C        3.2985099491   -1.8384819604   -1.1309695748
N        3.3339315382   -1.3769390338   -2.2040367098
H       -0.6465552461   -0.0434819372   -0.9140850651
C       -0.0518106092    0.1173729085   -0.0466357268
C        0.6051362637    0.3080899638    0.9494851938
C        1.3230955030    0.5225160751    2.0862179232
N        1.9274831109    0.7065706419    3.0708209680
30   
Iteration 7 Energy -1011.88139404
H       -0.5549737086   -3.4552424181   -2.7611209255
C       -0.4499337882   -3.5672964297   -1.7088103178
C       -0.3300081029   -3.7065679414   -0.5146027286
C       -0.1958869578   -3.8781567052    0.8289231689
N       -0.0784118985   -4.0329210427    1.9821874189
H        2.9419314131    0.7595817036   -2.9247537436
C        2.6374774770    1.6633701002   -2.4462991025
C        2.3195796190    2.6352007827   -1.8009062271
C        1.9809673143    3.7273168783   -1.0627740233
N        1.6979496375    4.6647411592   -0.4228126779
H       -1.1689357714    2.0954936946    4.4290506377
C       -1.7474095991    2.0832655859    3.5371343875
C       -2.4023400573    2.0620461981    2.5221654727
C       -3.1455319250    2.0322208642    1.3819527230
N       -3.7890090337    2.0016388423    0.4056253524
H       -3.5072741994   -2.4072127834    2.5562729299
C       -3.4516553972   -2.0802411801    1.5463780594
C       -3.3856348689   -1.7083478998    0.3991585038
C       -3.2731863443   -1.3029723259   -0.8947778273
N       -3.1485317475   -0.9652256235   -2.0080838666
H        3.2604047491   -3.3830932767    2.1761601104
C        3.3039517861   -2.9134591583    1.2227164383
C        3.3492073098   -2.3991078936    0.1304887408
C        3.4089811459   -1.8249304744   -1.1013504649
N        3.4601711492   -1.3341862171   -2.1610784835
H       -0.6954928822   -0.0182127591   -0.9976524032
C       -0.1253895471    0.1148941718   -0.1086752404
C        0.5001086998    0.2700918577    0.9136575827
C        1.1845677562    0.4504514629    2.0766068918
N        1.7613077241    0.6078608437    3.0822195840
30   
Iteration 8 Energy -1011.88249168
H       -0.6178591880   -3.5407582206   -2.7736245409
C       -0.4881074932   -3.6340033565   -1.7222968713
C       -0.3280691574   -3.7390201611   -0.5293442133
C       -0.1386104163   -3.8893993839    0.8100032760
N        0.0334791716   -4.0351440566    1.9575950125
H        2.9672744232    0.7868299209   -2.8778715523
C        2.6496125299    1.7152891309   -2.4587714629
C        2.3470902881    2.7313496712   -1.8769711157
C        2.0432809084    3.8872745766   -1.2247627135
N        1.8007581030    4.8841078098   -0.6626123510
H       -1.2259381168    2.2946362299    4.5509321967
C       -1.7704633369    2.2263209326    3.6403813563
C       -2.3923928025    2.1332552030    2.6087980026
C       -3.1084931105    2.0297245312    1.4558180891
N       -3.7353661838    1.9365474411    0.4726676107
H       -3.7821761684   -2.5203291495    2.5685336511
C       -3.6108106986   -2.1621574541    1.5824994297
C       -3.4075417355   -1.7416794451    0.4688210873
C       -3.1583643237   -1.2707182287   -0.7825440079
N       -2.9153694529   -0.8698108685   -1.8547330407
H        3.3357786948   -3.5959213244    2.1001291067
C        3.4094878026   -3.0622616205    1.1825992716
C        3.4692527409   -2.4653085345    0.1338124191
C        3.5443530783   -1.8207923917   -1.0622789731
N        3.6029816639   -1.2814865373   -2.0981404414
H       -0.7595385791    0.0387042334   -1.1252367631
C       -0.2268867326    0.1264434538   -0.2069004115
C        0.3448005824    0.2226942178    0.8536952436
C        0.9723130445    0.3467259836    2.0550791411
N        1.5025244335    0.4598874649    3.0917234608
30   
Iteration 9 Energy -1011.88345592
H       -0.6632617722   -3.5327384951   -2.7770403294
C       -0.5131870922   -3.6343163043   -1.7291634777
C       -0.3289568239   -3.7371496989   -0.5394853605
C       -0.1069160017   -3.8758352440    0.7961325795
N        0.0969591495   -4.0061816260    1.9404102300
H        2.9824949013    0.7789465056   -2.8108061176
C        2.6666580764    1.7225185863   -2.4243455596
C        2.3612878691    2.7615924781   -1.8861304681
C        2.0499143653    3.9386318163   -1.2761638813
N        1.8001197363    4.9514152405   -0.7465485824
H       -1.2026919527    2.3536724172    4.5584912076
C       -1.7548489291    2.2567865845    3.6550861059
C       -2.3768953916    2.1298774707    2.6272238592
C       -3.0839980869    1.9822047998    1.4735511137
N       -3.6978442488    1.8461210357    0.4871753392
H       -3.8734258505   -2.5435693715    2.5756756170
C       -3.6706702881   -2.1818482620    1.5968633373
C       -3.4223111024   -1.7565625527    0.4941408400
C       -3.1145262320   -1.2780311180   -0.7408827841
N       -2.8096899590   -0.8681828823   -1.7933088947
H        3.3065630554   -3.6220420081    2.0909639019
C        3.4080692923   -3.0985893731    1.1701602854
C        3.4833432411   -2.4964623730    0.1252919387
C        3.5549934414   -1.8385921050   -1.0638165151
N        3.6013517730   -1.2812955418   -2.0908855755
H       -0.7450889677    0.0944228451   -1.1755244032
C       -0.2294329260    0.1620872761   -0.2456701570
C        0.3127918279    0.2293637950    0.8324245048
C        0.9100110829    0.3231920454    2.0511243460
N        1.4161877912    0.4115641600    3.1020567708
30   
Iteration 10 Energy -1011.88517242
H       -0.8061044473   -3.3986959747   -2.7709917031
C       -0.5860049638   -3.5542190819   -1.7421295332
C       -0.3326004904   -3.6870080800   -0.5681920503
C       -0.0223849308   -3.8018695918    0.7518887750
N        0.2659062194   -3.8801534160    1.8828174624
H        3.0204112632    0.7169695981   -2.5502376925
C        2.7241838448    1.6994732188   -2.2481981304
C        2.3886206287    2.7869761709   -1.8387450722
C        2.0074646740    3.9899825769   -1.3270236994
N        1.6818831461    5.0130087852   -0.8620609240
H       -1.0337829412    2.3970848979    4.4484849702
C       -1.6515620953    2.2308792567    3.5991020025
C       -2.3114461059    2.0282717230    2.6077092785
C       -3.0120941632    1.7626236887    1.4714813971
N       -3.5906750511    1.5059929175    0.4876342461
H       -3.9803650103   -2.5286096595    2.6087463214
C       -3.7597246135   -2.1843026506    1.6274028705
C       -3.4650893428   -1.7897469254    0.5244580586
C       -3.0578801657   -1.3496385376   -0.6959036429
N       -2.6357074991   -0.9751439419   -1.7190200710
H        3.0809574561   -3.4982031660    2.1312345192
C        3.2652167831   -3.0864160132    1.1676353070
C        3.3936076306   -2.5558638084    0.0897203997
C        3.4448824826   -1.9235561560   -1.1135383254
N        3.4423657588   -1.3504036441   -2.1327531609
H       -0.5863797660    0.2888872644   -1.2570560230
C       -0.1009263940    0.3199723975   -0.3089067596
C        0.3672435233    0.3196389693    0.8053038646
C        0.8842486630    0.3365282587    2.0619407122
N        1.3227359213    0.3585410777    3.1461964278
30   
Iteration 11 Energy -1011.88569667
H       -0.8152761643   -3.4373923476   -2.7648970650
C       -0.5856581459   -3.5792052897   -1.7363156376
C       -0.3251509656   -3.7094581840   -0.5637630139
C       -0.0116921354   -3.8333310244    0.7544793356
N        0.2786648538   -3.9276540159    1.8836278345
H        3.0183082987    0.7323887932   -2.5745283379
C        2.7247391036    1.7165656081   -2.2733642561
C        2.3988722127    2.8071930202   -1.8642480585
C        2.0344180408    4.0211463490   -1.3674526995
N        1.7237524616    5.0579877098   -0.9234581757
H       -1.0734201438    2.4364927920    4.4951020392
C       -1.6700652501    2.2703205104    3.6309470361
C       -2.3195304799    2.0676043854    2.6326568511
C       -3.0218658177    1.8078287324    1.4963344637
N       -3.6098951983    1.5630014953    0.5153140324
H       -4.0504568456   -2.5629738320    2.5915187658
C       -3.7970709877   -2.2063135940    1.6225013569
C       -3.4814885659   -1.7973683489    0.5307120849
C       -3.0615122474   -1.3442301709   -0.6814161954
N       -2.6435111039   -0.9629082404   -1.7045064688
H        3.1420476903   -3.5826588797    2.0993449161
C        3.3078461807   -3.1198932114    1.1557339994
C        3.4306389085   -2.5569536479    0.0936301823
C        3.4991043125   -1.8975544671   -1.0937325136
N        3.5224605549   -1.3075817861   -2.1026919616
H       -0.6087811040    0.2733811651   -1.2652020546
C       -0.1277284422    0.3039254039   -0.3150007030
C        0.3412898994    0.3032602146    0.7993814202
C        0.8538659311    0.3176232674    2.0593295835
N        1.2840951629    0.3377577464    3.1469630699
30   
Iteration 12 Energy -1011.88629356
H       -0.8853982472   -3.4513375802   -2.7421531195
C       -0.6126386252   -3.5900958245   -1.7239090722
C       -0.3120887237   -3.7325636202   -0.5625102637
C        0.0412597621   -3.8746713867    0.7433990443
N        0.3658343898   -3.9897820457    1.8612807261
H        3.0378257760    0.7496187016   -2.5306382770
C        2.7446917577    1.7435595298   -2.2589967448
C        2.4223732289    2.8498827977   -1.8911303076
C        2.0639438995    4.0879516731   -1.4542683040
N        1.7554708659    5.1494432577   -1.0712324820
H       -1.0871842220    2.5122076448    4.5337524413
C       -1.6668258125    2.3254306650    3.6624001740
C       -2.3119125297    2.1002135867    2.6660843771
C       -3.0196578870    1.8176860804    1.5387271844
N       -3.6187797158    1.5596632343    0.5679964730
H       -4.2071673703   -2.6121176378    2.5613877261
C       -3.8901530174   -2.2426163516    1.6162313876
C       -3.5252159592   -1.8213800640    0.5447766209
C       -3.0593463426   -1.3632252051   -0.6493649199
N       -2.6213688883   -0.9870357041   -1.6664453924
H        3.1685466027   -3.6851751563    2.0529684814
C        3.3271421158   -3.1676399503    1.1371757848
C        3.4566743845   -2.5731722390    0.0932874775
C        3.5529507100   -1.8783189793   -1.0710408271
N        3.6098174295   -1.2600989438   -2.0611843253
H       -0.5944417242    0.3006898043   -1.2906167774
C       -0.1275063002    0.3237796334   -0.3336057082
C        0.3266747381    0.3066492349    0.7870345307
C        0.8121098841    0.2972573670    2.0590039053
N        1.2113698495    0.2961976421    3.1585900052
30   
Iteration 13 Energy -1011.88689334
H       -0.9907131010   -3.4348060147   -2.6953177759
C       -0.6561025874   -3.5900147318   -1.6982410791
C       -0.2969446565   -3.7676064640   -0.5585397396
C        0.1147128239   -3.9502922261    0.7247130599
N        0.4870675576   -4.1026981652    1.8230985096
H        3.0848155957    0.7785638115   -2.4562656555
C        2.7808705836    1.7806858559   -2.2282177175
C        2.4533933882    2.9038715458   -1.9207764596
C        2.0917056971    4.1670281673   -1.5665779007
N        1.7788085826    5.2529022686   -1.2636895176
H       -1.0828156077    2.5952971091    4.5605476692
C       -1.6531133836    2.3826246944    3.6889788557
C       -2.3019562222    2.1297951179    2.7018132147
C       -3.0230812841    1.8188547038    1.5904641192
N       -3.6396746925    1.5411094005    0.6362678270
H       -4.4045227323   -2.6606422262    2.5132227993
C       -4.0188638995   -2.2811258766    1.5981113728
C       -3.5988851169   -1.8522192432    0.5501403273
C       -3.0838728056   -1.4001727105   -0.6260893417
N       -2.6218197042   -1.0400122432   -1.6383470501
H        3.1819381835   -3.7879606227    1.9991183814
C        3.3407147614   -3.2150824576    1.1172620118
C        3.4793200914   -2.5884947461    0.0936063050
C        3.6045383786   -1.8524916316   -1.0418295300
N        3.6948769223   -1.1993127775   -2.0066039187
H       -0.5590036944    0.3346852716   -1.3036402845
C       -0.1057418418    0.3527789481   -0.3406179550
C        0.3382577968    0.3217637751    0.7836701731
C        0.7974582364    0.2889480286    2.0653246486
N        1.1656327568    0.2650236412    3.1754144640
30   
Iteration 14 Energy -1011.88751198
H       -1.1028119923   -3.4030057900   -2.6321746282
C       -0.7081338698   -3.5947582593   -1.6639268459
C       -0.2880295802   -3.8192229801   -0.5536764658
C        0.1869942434   -4.0546927099    0.6984426539
N        0.6115728984   -4.2527753303    1.7702608318
H        3.1473789265    0.8274057654   -2.3663888842
C        2.8264741695    1.8362971332   -2.1966409577
C        2.4903505628    2.9747994233   -1.9638405018
C        2.1235497823    4.2591616074   -1.7038815097
N        1.8088156339    5.3648498544   -1.4864741487
H       -1.0751042319    2.6927585158    4.5842253854
C       -1.6426223581    2.4486882557    3.7190182073
C       -2.2951892348    2.1605820012    2.7440504097
C       -3.0254703067    1.8118237995    1.6498035610
N       -3.6529550866    1.5022624498    0.7125058630
H       -4.6290496113   -2.7048670575    2.4521830060
C       -4.1788719467   -2.3181647199    1.5701337487
C       -3.6950038210   -1.8823409580    0.5530212964
C       -3.1197096475   -1.4338449670   -0.5960330329
N       -2.6130001374   -1.0829029965   -1.5899453057
H        3.2051002633   -3.8936629427    1.9399920510
C        3.3780938703   -3.2738833383    1.0933228002
C        3.5250906127   -2.6076342091    0.0962443505
C        3.6678491890   -1.8241383147   -1.0044045389
N        3.7758896123   -1.1307654449   -1.9387726224
H       -0.5281816267    0.3647373837   -1.3130904932
C       -0.0892125189    0.3747727332   -0.3435509631
C        0.3447276905    0.3317654556    0.7841641673
C        0.7819212116    0.2802044922    2.0727097133
N        1.1265373379    0.2375513947    3.1897226680
30   
Iteration 15 Energy -1011.88928667
H       -1.3649378451   -3.2821249307   -2.3915725141
C       -0.8351679677   -3.6131185671   -1.5316692560
C       -0.2758934693   -3.9965203373   -0.5317032638
C        0.3438992687   -4.4116134334    0.6044520042
N        0.8851525768   -4.7630272033    1.5799738945
H        3.3171687546    1.0093479990   -2.1441224422
C        2.9551923299    2.0194946378   -2.1292236958
C        2.5974754795    3.1747631047   -2.0944300560
C        2.2188065066    4.4817002598   -2.0793224290
N        1.9030444962    5.6083053971   -2.0792617389
H       -1.0503815026    2.9306769542    4.6238282814
C       -1.6242398760    2.6123816525    3.7871174625
C       -2.2928497215    2.2408759689    2.8520694075
C       -3.0507133318    1.8029533941    1.8091983019
N       -3.7068508820    1.4154593451    0.9214399414
H       -5.2119531284   -2.7888928852    2.2564427394
C       -4.6264683993   -2.3925169252    1.4625508383
C       -3.9956941706   -1.9469980078    0.5339129565
C       -3.2807710635   -1.5132815115   -0.5390759933
N       -2.6646410117   -1.1879300584   -1.4782826702
H        3.3088645189   -4.1434151982    1.7710427276
C        3.5211439387   -3.4147410734    1.0258329406
C        3.6764359863   -2.6375733725    0.1138430994
C        3.8417595500   -1.7268416575   -0.8797604340
N        3.9705159449   -0.9260406842   -1.7209187306
H       -0.4663133544    0.3950555315   -1.2938033933
C       -0.0491082728    0.3960691260   -0.3154455720
C        0.3857234515    0.3491172520    0.8112748670
C        0.8031583216    0.2814568771    2.1048983691
N        1.1246429100    0.2179786397    3.2277141481
30   
Iteration 16 Energy -1011.89109205
H       -1.5312788779   -3.1578574978   -2.0831613324
C       -0.9194926515   -3.6507998297   -1.3669552733
C       -0.2650035720   -4.1954151176   -0.5095852607
C        0.4653276513   -4.7884645964    0.4711948477
N        1.0990820777   -5.2874706825    1.3182219202
H        3.4452503798    1.2261799001   -1.9410613968
C        3.0727411593    2.2243471258   -2.0736517798
C        2.7093516313    3.3682272585   -2.2278893016
C        2.3288584126    4.6589986534   -2.4332066634
N        2.0174680050    5.7707782440   -2.6236407354
H       -1.0138328738    3.1357206939    4.6228732233
C       -1.6091261556    2.7482607050    3.8313524412
C       -2.2962506439    2.2987210125    2.9451849627
C       -3.0740654293    1.7739816907    1.9581841684
N       -3.7452719962    1.3086007028    1.1203902009
H       -5.7356439907   -2.8209893326    2.0595664278
C       -5.0596799152   -2.4298062529    1.3382069415
C       -4.3133524672   -1.9859669564    0.4988281663
C       -3.4760757248   -1.5640250664   -0.4861538707
N       -2.7513514876   -1.2543667760   -1.3501746491
H        3.4138357526   -4.3425685795    1.5965156662
C        3.6658724725   -3.5363207544    0.9480035741
C        3.8264231952   -2.6534823224    0.1383101977
C        3.9897311662   -1.6260850546   -0.7350000644
N        4.1069198980   -0.7256178676   -1.4702310048
H       -0.4295132818    0.3936783144   -1.2536204201
C       -0.0211259657    0.3943116526   -0.2715837197
C        0.4237258485    0.3614710727    0.8515241666
C        0.8504705733    0.3035867863    2.1423400537
N        1.1830068626    0.2433732407    3.2622183290
30   
Iteration 17 Energy -1011.89310707
H       -1.5536707086   -3.0285694752   -1.6752165934
C       -0.9305146765   -3.7230138806   -1.1611816803
C       -0.2365284989   -4.4458000070   -0.4856563796
C        0.5630419131   -5.2199938573    0.2949478747
N        1.2628069276   -5.8608316872    0.9792127390
H        3.5616289864    1.4658107403   -1.7660412789
C        3.2052165645    2.4388781209   -2.0441243106
C        2.8427197388    3.5448490341   -2.3762658583
C        2.4582546985    4.7910058189   -2.7696943441
N        2.1452804399    5.8649181718   -3.1138543829
H       -0.9516024763    3.2930005388    4.5610241504
C       -1.5920802750    2.8438958439    3.8404273770
C       -2.3093373479    2.3253253445    3.0181838727
C       -3.1079628875    1.7215723919    2.0949731632
N       -3.7863697362    1.1836761462    1.3081590817
H       -6.2290867200   -2.7925777544    1.8815655043
C       -5.5081420042   -2.4206132381    1.1946026878
C       -4.6838030016   -1.9864531164    0.4265185907
C       -3.7563449977   -1.5638327260   -0.4729740532
N       -2.9444170617   -1.2473801192   -1.2529082842
H        3.5098513873   -4.5000870578    1.3983937742
C        3.7912321559   -3.6310392547    0.8468179798
C        3.9570909453   -2.6397806266    0.1744267812
C        4.0963456777   -1.4964766053   -0.5493839829
N        4.1745287097   -0.4986703845   -1.1528034427
H       -0.4374635735    0.3276128948   -1.1531077876
C       -0.0089483297    0.3491673508   -0.1798473666
C        0.4763002770    0.3683194205    0.9263940689
C        0.9714127093    0.3696574787    2.1936515031
N        1.3775612367    0.3584308976    3.2907604643
30   
Iteration 18 Energy -1011.89434619
H       -1.5154969337   -2.9881475779   -1.6710169999