97   
Iteration 0 Energy -2096.21723761
O       -2.0856450000    4.6892220000   21.6066530000
C       -1.7487560000    4.9972730000   20.5055070000
C       -1.8073030000    4.1611350000   19.3002970000
C       -3.1683000000    4.0747500000   18.6807520000
C       -3.5176670000    3.0446530000   17.8579180000
C       -2.6096960000    1.8923140000   17.6570500000
O       -2.4369320000    1.5467750000   16.2872730000
C       -1.2966900000    1.8792750000   18.3661390000
O       -0.2658650000    2.4334410000   17.5699260000
C       -1.2467800000    2.7251930000   19.6270110000
O       -1.8936850000    2.1107210000   20.7112160000
C        0.2898600000    2.9028520000   19.7939980000
C        0.9012520000    3.1571160000   20.8878830000
C        2.3563090000    3.4439790000   21.1540940000
C        2.8410080000    3.7096520000   22.3133220000
C        4.3056630000    3.9932550000   22.5262910000
C        4.4813060000    5.2710970000   23.3539650000
C        3.9063860000    6.5424190000   22.7029580000
C        2.9571440000    7.2025280000   23.4459290000
C        2.2900830000    8.4640710000   22.9836900000
C        0.7448050000    8.2440340000   22.7368400000
O        0.2409100000    9.5267660000   22.2721800000
C        0.4443870000    7.1992680000   21.6792560000
C       -0.9885940000    7.1031040000   21.3573830000
O       -1.2179860000    6.2115490000   20.2876980000
C       -1.4876900000    8.4640710000   20.9798470000
C       -1.1651970000    9.5120960000   22.0688920000
O       -1.8792880000    9.0426850000   23.1772980000
C       -1.5443180000   10.9545580000   21.6235940000
C       -2.1489920000   11.7939560000   22.7852420000
N       -2.2113790000   13.0848370000   22.5819530000
O       -1.7977050000   13.4955720000   21.3235010000
C       -2.5684250000   11.1941530000   24.0146520000
C       -1.8092230000    9.8902330000   24.3195850000
C       -2.2593690000    9.1469990000   25.5030140000
C       -1.6470170000    9.1225500000   26.6501410000
C       -2.0386150000    8.5178570000   27.9473150000
C       -2.9734600000    9.5332850000   28.7870900000
C       -0.7918350000    8.1576500000   28.7943500000
C       -4.7855630000    3.0544330000   17.0447640000
C        0.8110310000    2.7740900000   18.4024400000
C        4.8930600000    2.8148370000   23.3152430000
C        4.2682310000    6.8602490000   21.3767430000
C       -2.0280570000   14.8940260000   21.2291170000
C       -2.5780230000   12.2405490000   25.2198620000
C       -3.5934910000    8.4249530000   25.3336070000
H       -1.2573380000    4.5914280000   18.6420300000
H       -3.8113660000    4.7625680000   18.8646800000
H       -3.1078320000    1.2110160000   18.1120280000
H       -1.1786340000    0.9469720000   18.5670070000
H        0.3407290000    3.1701560000   21.6671550000
H        2.9600230000    3.4260500000   20.4087030000
H        2.2516910000    3.7275810000   23.0708130000
H        4.7433320000    4.1057180000   21.6792560000
H        4.0436370000    5.1407050000   24.1985800000
H        5.4199910000    5.4063780000   23.4967510000
H        2.7114350000    6.8406900000   24.3026440000
H        2.4071780000    9.1437390000   23.6516370000
H        2.6979980000    8.7493030000   22.1632760000
H        0.3378500000    7.9310930000   23.5475730000
H        0.7448050000    6.3452010000   21.9987090000
H        0.9223680000    7.4290840000   20.8806230000
H       -1.4502580000    6.7722350000   22.1318150000
H       -1.0759360000    8.7313740000   20.1545930000
H       -2.4398120000    8.4233230000   20.8636820000
H       -2.1883440000   10.8991410000   20.9120840000
H       -0.7544030000   11.3962610000   21.3041400000
H       -3.4831140000   10.9268500000   23.9009080000
H       -0.9098900000   10.1575370000   24.5228730000
H       -0.7985540000    9.5707730000   26.6622420000
H       -2.4954800000    7.6751990000   27.7198250000
H       -3.7144260000    9.6816060000   28.2691880000
H       -2.4282940000   10.2683700000   28.9468160000
H       -3.1683000000    9.0492050000   29.5954030000
H       -0.2313120000    7.6263020000   28.3805130000
H       -1.1181670000    7.8365590000   29.6559050000
H       -0.3781610000    9.0557240000   29.0048990000
H       -4.6588690000    3.3282560000   16.1154460000
H       -5.4478250000    3.7275810000   17.4101990000
H       -5.2539450000    2.2150340000   17.0447640000
H        1.4800120000    2.0862720000   18.3661390000
H        1.1939910000    3.6069690000   18.1192890000
H        5.8653380000    2.8409160000   23.2644210000
H        4.5801660000    2.0569340000   22.8263830000
H        4.6348740000    2.7496410000   24.2324610000
H        4.0349990000    7.7615840000   21.1637750000
H        3.8833510000    6.2604460000   20.7354170000
H        5.2577840000    6.7869040000   21.2775190000
H       -2.4503690000   15.1352510000   20.4304840000
H       -1.1863130000   15.3846260000   21.3235010000
H       -2.5933800000   15.2037070000   21.9890290000
H       -2.7776610000   11.8053660000   26.0426960000
H       -3.0368070000   13.0017120000   25.0649760000
H       -1.5702330000   12.5290410000   25.3553880000
H       -3.8919890000    7.8430790000   26.0402760000
H       -3.5157470000    7.9278340000   24.5204530000
H       -4.2845470000    9.1095110000   25.2053420000
97   
Iteration 1 Energy -2096.95383793
O       -2.1225739981    4.6508834568   21.5894322552
C       -1.7621891415    5.0001374169   20.4893534043
C       -1.8027863816    4.1568971354   19.2626398211
C       -3.1667420623    4.0748188962   18.6307577355
C       -3.4936611640    3.0495839742   17.8176788255
C       -2.5886144305    1.8772758634   17.6081877500
O       -2.4024802244    1.5263128808   16.2842938688
C       -1.2404909371    1.8609210315   18.3199153831
O       -0.1917286906    2.4175892149   17.5329722740
C       -1.2331658624    2.7291845386   19.5962355261
O       -1.8657247775    2.1155418823   20.6288845109
C        0.2965376495    2.8968012030   19.7768728865
C        0.8474132642    3.1535605325   20.9489803846
C        2.2958646949    3.4207085409   21.1280321350
C        2.8007034731    3.6908940228   22.3271492152
C        4.2653067238    3.9609507533   22.5746326947
C        4.4332455337    5.2461854722   23.4162766526
C        3.8720263025    6.5093026203   22.7535617466
C        2.9250902524    7.2183741868   23.4182652160
C        2.2501792336    8.4834333678   22.9535101558
C        0.7269497959    8.2560371113   22.7109637617
O        0.2090804590    9.5304049624   22.2595605853
C        0.4575051680    7.2000746641   21.6429520708
C       -1.0101222248    7.1145107200   21.3263068389
O       -1.2302990914    6.2161914763   20.2418333443
C       -1.5294335918    8.4866810475   20.9452858248
C       -1.1984140304    9.5144234065   22.0497302038
O       -1.9042729567    9.0402041599   23.1666257113
C       -1.5781922313   10.9549543396   21.6240564515
C       -2.1682925087   11.8088268251   22.7715637346
N       -2.2637682812   13.0917838456   22.6640469461
O       -1.8631466516   13.5554486278   21.4155486134
C       -2.5945986939   11.1834246126   24.0285000854
C       -1.8225215491    9.8807364788   24.3162878264
C       -2.2901108960    9.1278409190   25.5086905454
C       -1.5561866613    9.1839919485   26.6154948586
C       -1.9457447908    8.5826760243   27.9310293335
C       -2.8716649440    9.5912920957   28.7509535127
C       -0.6874816324    8.2351858231   28.7708600599
C       -4.7572374882    3.0556820485   17.0033064036
C        0.8811101283    2.7661896953   18.3919705484
C        4.8501662312    2.7660443927   23.3661212026
C        4.3007667868    6.7850165719   21.3814454100
C       -2.0849130341   14.9632496707   21.3458041366
C       -2.5871200520   12.1914792558   25.2354880665
C       -3.6291907581    8.3976337202   25.3964831057
H       -1.1944381655    4.6237088749   18.5564322260
H       -3.8641453259    4.8217741207   18.8233281457
H       -3.1186357623    1.1188215878   18.1067651779
H       -1.0885573882    0.8541030357   18.5509456330
H        0.2432221428    3.1728538589   21.7967059903
H        2.9179791468    3.3876070775   20.2938305241
H        2.1634420557    3.7151777905   23.1506515446
H        4.7575075189    4.0795204787   21.6640307333
H        3.9460499118    5.1104582598   24.3271273632
H        5.4534958522    5.3857352153   23.5874460690
H        2.6352888751    6.8541192882   24.3490692364
H        2.3617948530    9.2261253717   23.6772295666
H        2.6828543502    8.8010367120   22.0619342077
H        0.2823733360    7.9240394088   23.5938407388
H        0.7949630118    6.2753393680   21.9879287673
H        0.9808452849    7.4522489988   20.7765257648
H       -1.5142355068    6.7556622045   22.1637144011
H       -1.0864608817    8.7890985187   20.0509926298
H       -2.5638597467    8.4462397456   20.8210955895
H       -2.2804099806   10.9014115019   20.8548772063
H       -0.7199662097   11.4298192755   21.2768999867
H       -3.5913094517   10.8931705561   23.9093803776
H       -0.8378249591   10.1612551729   24.5218292380
H       -0.6407868755    9.6836841734   26.5755109008
H       -2.4448780351    7.6829612406   27.7121117684
H       -3.7108939174    9.7612659646   28.1850297417
H       -2.2902193412   10.4250295636   28.9233255305
H       -3.0940438429    9.1001391857   29.6435580730
H       -0.0532045509    7.6108065054   28.2860116329
H       -1.0125446648    7.8869351492   29.7042184579
H       -0.2221994005    9.1663699171   28.9839672913
H       -4.5917235830    3.3421468692   16.0078575890
H       -5.4506176966    3.7631050140   17.3894150079
H       -5.2482645063    2.1341724110   17.0054408912
H        1.6093709983    2.0174661329   18.3733647399
H        1.3055161708    3.6680812063   18.0839207228
H        5.8974433625    2.7980757533   23.3345741282
H        4.5369692405    1.9151564668   22.8548145843
H        4.5386015111    2.7192201249   24.3577215909
H        4.0728243492    7.7577285526   21.0932088876
H        3.8851576586    6.1118734210   20.7008288683
H        5.3516202953    6.6830516603   21.3025819048
H       -2.5525016518   15.2140783150   20.4577787716
H       -1.1728276069   15.4769945057   21.4391344804
H       -2.6862875007   15.2737857477   22.1553990290
H       -2.8138995473   11.6972028284   26.1210346131
H       -3.1210031516   13.0447027428   25.0602346451
H       -1.5566467419   12.4924255247   25.3712962683
H       -3.8874992735    7.7919813277   26.2041783043
H       -3.5936999690    7.8269148537   24.5259960983
H       -4.3886756647    9.1148629099   25.2741507834
97   
Iteration 2 Energy -2097.06980386
O       -2.1339994882    4.6757799499   21.6124575950
C       -1.8065379016    4.9988851531   20.4900280339
C       -1.8483206691    4.1670626008   19.2287515032
C       -3.2216322981    4.0531384947   18.6168444213
C       -3.5439420895    3.0331968515   17.8120868201
C       -2.6082500979    1.8720279235   17.5625174757
O       -2.4154746530    1.5159373139   16.2995514473
C       -1.1897791076    1.8991061994   18.2027650002
O       -0.1876527352    2.5146575279   17.4084652859
C       -1.2324671823    2.7600312092   19.5284585208
O       -1.7898342932    2.0591925010   20.4756572011
C        0.2965822503    2.9316420183   19.6638815114
C        0.8747675147    3.1581473421   20.8517218597
C        2.2561642101    3.4773044962   21.1742611699
C        2.8060573258    3.7401830891   22.3735958396
C        4.2534762165    4.0304204598   22.6627347054
C        4.3753970508    5.3199646041   23.5148148167
C        3.7930591552    6.5569591221   22.8514611817
C        2.8326000676    7.2449262099   23.4858041265
C        2.1538306370    8.4838056837   22.9642068862
C        0.6604887516    8.2451141038   22.6991631218
O        0.1372591857    9.5094747826   22.2620066466
C        0.4080761485    7.1787726598   21.6260664820
C       -1.0813187270    7.1141881617   21.3094679177
O       -1.2916238111    6.2143577311   20.2056584648
C       -1.6114580377    8.4904444399   20.9229960261
C       -1.2684609182    9.5044666198   22.0301220732
O       -1.9653387566    9.0580503480   23.1702369467
C       -1.6240561639   10.9445188396   21.6157128133
C       -2.1588437257   11.8060361057   22.7460799040
N       -2.2043240508   13.0759262732   22.5843590163
O       -1.7790112676   13.4504300445   21.3048345708
C       -2.6104207812   11.2096426500   24.0473872506
C       -1.8388496744    9.9008366667   24.3208447691
C       -2.3257273865    9.1356176009   25.5243383913
C       -1.6734782544    9.0517694168   26.6959675629
C       -1.9117846729    8.4714143997   28.0724302970
C       -2.7360416804    9.4656093650   28.9448201994
C       -0.5709817133    8.1436914362   28.7706031147
C       -4.8402618533    2.9810549118   17.0524646067
C        0.8899182670    2.8561847903   18.2709153444
C        4.8881026132    2.8359302437   23.4216097157
C        4.2793491997    6.8553276976   21.4664695839
C       -1.8264732875   14.8691308200   21.1632277651
C       -2.5391101611   12.1957956369   25.2294084174
C       -3.6809144270    8.5070680777   25.3067852499
H       -1.2270148268    4.6730942209   18.5047945328
H       -3.9431602897    4.8184041732   18.8323513920
H       -3.0414201533    1.0354288956   18.1268972680
H       -0.9319276464    0.8778315853   18.4432509893
H        0.2172975673    3.1202817472   21.6979849745
H        2.9199786690    3.4956993073   20.3298615339
H        2.1575038659    3.7326562132   23.2317944796
H        4.7778505214    4.1722178320   21.7311445635
H        3.8753658190    5.1568981968   24.4571926662
H        5.4256637075    5.4862438343   23.7156784297
H        2.5126640815    6.8970029670   24.4528343800
H        2.2353877641    9.2751129842   23.6947328820
H        2.6043367471    8.8212622624   22.0457579533
H        0.1815359456    7.9378845569   23.6173245836
H        0.7589802690    6.2196800939   21.9758229219
H        0.9586849384    7.4354364845   20.7321239531
H       -1.6152476789    6.7401101032   22.1655774944
H       -1.1505723755    8.8104858104   20.0007563289
H       -2.6812785295    8.4594605640   20.7864686415
H       -2.3591441292   10.9199186991   20.8254363758
H       -0.7356753998   11.4152866934   21.2319223776
H       -3.6506784285   10.9261458915   23.9311363587
H       -0.8001093840   10.1535303483   24.4815548740
H       -0.7173122488    9.5438014432   26.6591932507
H       -2.4671486931    7.5479145739   27.9579262764
H       -3.6782833252    9.6563234492   28.4809787731
H       -2.1753881675   10.3720713206   29.0529318099
H       -2.8953836145    9.0351933260   29.9222106664
H        0.0085632006    7.4616967953   28.2063510427
H       -0.7555260295    7.7666592505   29.7687279546
H       -0.0073183386    9.0686714733   28.9054110063
H       -4.6825687576    3.2479275557   16.0150259485
H       -5.5661250504    3.6800242328   17.4675102111
H       -5.2801805784    1.9939718397   17.0744229749
H        1.6645145479    2.1016809811   18.2134688549
H        1.3034764983    3.8010980380   17.9503587750
H        5.9670070903    2.9282096452   23.4301149184
H        4.6439370725    1.9113122924   22.9227662047
H        4.5347633200    2.7887649866   24.4381523154
H        4.0223816010    7.8494643607   21.1442576770
H        3.8720450290    6.1504183208   20.7555872835
H        5.3643582346    6.7699269788   21.4046802306
H       -2.2845017033   15.0908198726   20.2180603825
H       -0.8236729954   15.2821001132   21.1972531676
H       -2.4100065130   15.3012813435   21.9692681860
H       -2.8309386362   11.6993889598   26.1378841419
H       -3.1114572967   13.0688013334   25.0332099327
H       -1.4965582928   12.5096117893   25.3715078164
H       -3.9827095685    7.8631624964   26.1144391610
H       -3.6649956014    7.9447478067   24.3864776352
H       -4.4346156206    9.2805452395   25.1931698647
97   
Iteration 3 Energy -2097.08668972
O       -2.1921073982    4.6419380262   21.5624308808
C       -1.8281957985    5.0329139684   20.4741571275
C       -1.8360706855    4.1539342799   19.2334588484
C       -3.1940407389    3.9964281308   18.5983613424
C       -3.4858704364    2.9439843615   17.8338501373
C       -2.5311963981    1.7801380208   17.6354875972
O       -2.2800291423    1.3787259166   16.4263799100
C       -1.0892166903    1.8526050980   18.2734733931
O       -0.0848478734    2.4601325070   17.4931710809
C       -1.2126826760    2.7728633568   19.6045997128
O       -1.7722892041    2.0790877946   20.5179780366
C        0.3183393896    2.9324259803   19.7494191714
C        0.8596379647    3.1732371711   20.9606606641
C        2.2600933257    3.4585829903   21.0819475265
C        2.7070973305    3.7231906319   22.3271362590
C        4.1525824840    3.9784881915   22.6284762279
C        4.3095398352    5.2788777325   23.4588068949
C        3.7742112844    6.5155165285   22.7728359603
C        2.8388499604    7.2722938751   23.3592907839
C        2.1545542588    8.5195627607   22.8695721439
C        0.6633942420    8.2893045612   22.6450231128
O        0.1250596876    9.5499284401   22.2319249559
C        0.3885107987    7.2254396757   21.5770959733
C       -1.1128051241    7.1659496686   21.2957012272
O       -1.3242845398    6.2581421664   20.1865755736
C       -1.6540721938    8.5437612085   20.9220875684
C       -1.2858605313    9.5503145466   22.0229525458
O       -1.9573387318    9.1051491470   23.1791791087
C       -1.6425789267   10.9930864415   21.6355060132
C       -2.1306388029   11.8786407782   22.7623210608
N       -2.2152890097   13.1571898319   22.7224808082
O       -1.8537123825   13.6853243235   21.4728663857
C       -2.5614526537   11.2635878782   24.0819830551
C       -1.7871251739    9.9506420269   24.3205365749
C       -2.2534137837    9.1715086829   25.5305210270
C       -1.4196148428    9.1830372646   26.5787967608
C       -1.8997951663    8.5081966847   27.8430823688
C       -2.7756854199    9.4715812807   28.6587738474
C       -0.7012953706    8.0227556400   28.6717923385
C       -4.7711748034    2.8197184502   17.0632408974
C        0.9682646804    2.8239443069   18.3834178659
C        4.7545785685    2.7822185248   23.4019784007
C        4.3119273673    6.7498639404   21.3768677756
C       -1.9305885578   15.1085160462   21.4976870305
C       -2.4427581197   12.2308805289   25.2572020516
C       -3.6099040610    8.5100715560   25.4767730423
H       -1.1852836126    4.6515149114   18.5008357399
H       -3.9347396275    4.7786574063   18.7711142031
H       -2.9177320894    0.9353168650   18.2751084227
H       -0.7982558784    0.8354875349   18.5701748923
H        0.2247634047    3.1716269378   21.8477908226
H        2.9213960018    3.4434508776   20.2096350177
H        2.0084697373    3.7332091427   23.1705383245
H        4.7006419965    4.0897339125   21.6830299288
H        3.7980248509    5.1425840194   24.4221163226
H        5.3835608797    5.4113311569   23.6709959294
H        2.5043176498    6.9503119551   24.3498850042
H        2.2591115228    9.3253742606   23.6113490384
H        2.5845293419    8.8762677404   21.9270815958
H        0.1923682264    7.9810874999   23.5907433969
H        0.7542761758    6.2478793514   21.9176594365
H        0.9286007714    7.4876763088   20.6546827771
H       -1.6427662088    6.7809045711   22.1706611656
H       -1.2037652680    8.8784090140   19.9775298509
H       -2.7444665764    8.5137082858   20.8007231332
H       -2.4082812306   10.9825915957   20.8471034463
H       -0.7471944248   11.4591223132   21.2129957300
H       -3.6243009881   10.9805060747   23.9833477437
H       -0.7201294971   10.1941804354   24.4413850982
H       -0.4392079204    9.6754542155   26.5498690591
H       -2.5106586925    7.6313522391   27.5743433765
H       -3.6483453087    9.7917177942   28.0861710826
H       -2.2015296243   10.3594084903   28.9433978436
H       -3.1283546068    8.9917687840   29.5829323558
H       -0.0853210806    7.3234221631   28.1145187475
H       -1.0411506540    7.5490826770   29.6044445004
H       -0.0699002791    8.8782416092   28.9691758742
H       -4.5897032418    3.0299205547   15.9989776133
H       -5.5277768166    3.5258018749   17.4368439957
H       -5.1808994045    1.8010607891   17.1290132427
H        1.7584100041    2.0543637613   18.3680209890
H        1.4038972068    3.7716905339   18.0360167469
H        5.8515304707    2.8589674378   23.4300609281
H        4.5020804099    1.8251449605   22.9268787198
H        4.3780719831    2.7662742812   24.4325811243
H        4.1012534690    7.7556540885   21.0007375813
H        3.8751464105    6.0282110940   20.6703210244
H        5.4062585994    6.6082362033   21.3419831208
H       -2.4338309324   15.4207949552   20.5766753714
H       -0.9183802116   15.5414494957   21.5343001050
H       -2.5046452156   15.4355062144   22.3747180519
H       -2.7437629901   11.7316112178   26.1840426362
H       -3.0395006749   13.1210281597   25.0768027761
H       -1.3960560532   12.5519774446   25.3823545204
H       -3.7869792825    7.8803681962   26.3551689796
H       -3.7030159219    7.8958277455   24.5720082558
H       -4.4173453295    9.2599357411   25.4310813097
97   
Iteration 4 Energy -2097.09975182
O       -2.2744709389    4.6382430430   21.5051872539
C       -1.8851661242    5.0171041738   20.4230746589
C       -1.8520502732    4.1666401439   19.1622766038
C       -3.1884995725    4.0143518411   18.4838882683
C       -3.4468224292    2.9707119119   17.6928253937
C       -2.4812771516    1.8174101125   17.4946313337
O       -2.1791162644    1.4450033307   16.2785804905
C       -1.0450779715    1.8987942364   18.1554503553
O       -0.0373800062    2.5485735141   17.4274531552
C       -1.2348757683    2.7837056171   19.5263450645
O       -1.8233040055    2.0468698935   20.3961646303
C        0.2959109087    2.9427110803   19.7065139343
C        0.8014370078    3.1417538535   20.9394350010
C        2.1957711836    3.4438369249   21.1709842315
C        2.6812625840    3.6975924123   22.4042153545
C        4.1182387998    3.9677914947   22.7359830846
C        4.2430454050    5.2613576895   23.5788093367
C        3.6997252640    6.4972006090   22.8952693903
C        2.7399544784    7.2332103093   23.4737215384
C        2.0609949625    8.4729282705   22.9615543726
C        0.5718173591    8.2430149645   22.6903611505
O        0.0492354335    9.5094031123   22.2707307503
C        0.3123281048    7.1878572601   21.6106293037
C       -1.1792738250    7.1370296241   21.2891277544
O       -1.3710155084    6.2430295128   20.1639401674
C       -1.7012897209    8.5184184726   20.9121253159
C       -1.3557339372    9.5184580005   22.0240711097
O       -2.0594535329    9.0719798826   23.1614258581
C       -1.6929839363   10.9664242389   21.6386062783
C       -2.1913545663   11.8432274818   22.7662223783
N       -2.2520134188   13.1224289144   22.7024062456
O       -1.8519222615   13.6078781123   21.4479163013
C       -2.6599654584   11.2292182830   24.0746631996
C       -1.9022155902    9.9072642463   24.3149913415
C       -2.3944888393    9.1190701253   25.5076778029
C       -1.5459711210    9.1243396142   26.5483903858
C       -1.6656041450    8.5530979255   27.9474899465
C       -2.4155895379    9.5339852971   28.8638339876
C       -0.2744858529    8.2339846165   28.5117070080
C       -4.7114299986    2.8395576904   16.8895903940
C        0.9877276663    2.8860298737   18.3608387197
C        4.7270234191    2.7757425812   23.5049152477
C        4.2642062005    6.7689193498   21.5192528861
C       -1.8831899057   15.0324799792   21.4468011596
C       -2.5553334975   12.1912424274   25.2606737757
C       -3.7612175880    8.4800142942   25.4180838496
H       -1.1774239831    4.6809341569   18.4640381116
H       -3.9376831079    4.7905394977   18.6438063852
H       -2.8557928602    0.9627529018   18.1341883719
H       -0.7454222195    0.8819085307   18.4406853698
H        0.1220606672    3.1015059052   21.7906136320
H        2.8754334262    3.4589431981   20.3151045950
H        1.9880512755    3.6902822624   23.2504794556
H        4.6803996202    4.0979122802   21.8015009425
H        3.7200526137    5.1064962477   24.5329117026
H        5.3105033290    5.4067727948   23.8140502499
H        2.3839374835    6.9022391508   24.4534298044
H        2.1412996671    9.2785295604   23.7063668610
H        2.5196894015    8.8365907237   22.0355170536
H        0.0729591783    7.9337012579   23.6214999110
H        0.6632259150    6.2055313669   21.9500258366
H        0.8750744850    7.4540246095   20.7036582508
H       -1.7342420468    6.7449674297   22.1442122250
H       -1.2261708305    8.8561726125   19.9816271945
H       -2.7874941365    8.4948238556   20.7625088617
H       -2.4419569669   10.9703867137   20.8343809607
H       -0.7888475990   11.4273859050   21.2294480209
H       -3.7215612394   10.9559909893   23.9471404786
H       -0.8351523537   10.1371691834   24.4533649119
H       -0.6004835675    9.6515823626   26.3808186385
H       -2.2357284092    7.6143706880   27.9105225391
H       -3.4232523647    9.7377365812   28.4893305560
H       -1.8779202468   10.4876548797   28.9302032479
H       -2.5042165103    9.1298914370   29.8822953708
H        0.2574378104    7.5174560138   27.8850000385
H       -0.3490815847    7.8296722083   29.5305841813
H        0.3333393380    9.1501181177   28.5755565263
H       -4.5081588795    3.0573901597   15.8318945682
H       -5.4840486512    3.5308213254   17.2483596148
H       -5.1095521438    1.8158860778   16.9348264982
H        1.7839801829    2.1231124151   18.3438951809
H        1.4263315193    3.8460727693   18.0548758489
H        5.8198529172    2.8747780673   23.5605037968
H        4.4997496433    1.8234132014   23.0097340031
H        4.3325619521    2.7326705982   24.5282686761
H        4.0416435784    7.7773303156   21.1583918359
H        3.8569868071    6.0555889632   20.7878402728
H        5.3586492131    6.6465283710   21.5102840488
H       -2.3497935953   15.3518055835   20.5080943476
H       -0.8604551860   15.4333134907   21.5044429875
H       -2.4678132525   15.3928486261   22.3004346003
H       -2.8913719186   11.6965741329   26.1778937677
H       -3.1419391375   13.0910849925   25.0781695102
H       -1.5127524454   12.5020167439   25.4119662316
H       -3.9787254783    7.8352125536   26.2734969857
H       -3.8445389543    7.8851493157   24.5002465344
H       -4.5536110939    9.2433583901   25.3704625822
97   
Iteration 5 Energy -2097.10305427
O       -2.2359263470    4.6870091667   21.5972720730
C       -1.8870597654    5.0264060386   20.4896326108
C       -1.8884381925    4.1703221686   19.2312809763
C       -3.2437900729    4.0061108081   18.5950389699
C       -3.5246323550    2.9561799891   17.8187167622
C       -2.5600037505    1.8085327640   17.5962838013
O       -2.2864018286    1.4325227477   16.3706559149
C       -1.0959896726    1.9044601831   18.1965848516
O       -0.1248643865    2.5644052072   17.4405634800
C       -1.2541704582    2.7959497858   19.5853078102
O       -1.8128935757    2.0537921288   20.4703690829
C        0.2829378550    2.9629695238   19.7082481356
C        0.8400304306    3.1661452526   20.9164036325
C        2.2326797211    3.4841633582   21.1662855074
C        2.7687549541    3.7480099830   22.3746217651
C        4.2122636619    4.0335403684   22.6632743060
C        4.3457072917    5.3346958448   23.4911276127
C        3.7673109264    6.5586349368   22.8138483108
C        2.8149986903    7.2758021274   23.4268654653
C        2.1220753608    8.5019015925   22.9040117987
C        0.6265428089    8.2673121589   22.6613606062
O        0.0988867454    9.5306044820   22.2360302065
C        0.3397550138    7.1999748342   21.6008478161
C       -1.1572392022    7.1494670059   21.3109415986
O       -1.3802123297    6.2460703959   20.1992461538
C       -1.6833230257    8.5262363465   20.9289215494
C       -1.3109430980    9.5397862766   22.0191138589
O       -1.9911132204    9.1101425829   23.1790225213
C       -1.6520309098   10.9837946088   21.6224728827
C       -2.1176095142   11.8651134344   22.7564665502
N       -2.1556219405   13.1390383213   22.6265054555
O       -1.7703752766   13.5346649339   21.3363508794
C       -2.5600150374   11.2779786541   24.0857912877
C       -1.8014867753    9.9559915171   24.3238790382
C       -2.2676813123    9.1802419742   25.5378419894
C       -1.5383286293    9.0660475623   26.6599114225
C       -1.9153923702    8.4042975929   27.9681435205
C       -2.7209693567    9.3772928333   28.8485604012
C       -0.6582492454    7.9168686238   28.7017837808
C       -4.8154496049    2.8099644198   17.0605192071
C        0.9281629062    2.9098752212   18.3411617442
C        4.8575239634    2.8545382434   23.4204923273
C        4.2837259995    6.8433882518   21.4242999011
C       -1.7617153828   14.9566098680   21.2476849807
C       -2.4240031076   12.2575030461   25.2563636942
C       -3.6459406733    8.5972364104   25.3823819565
H       -1.2368419672    4.6816359118   18.5119137831
H       -3.9899164624    4.7791866917   18.7713152291
H       -2.8991275040    0.9593208447   18.2624923319
H       -0.7777751122    0.8942700251   18.4783220001
H        0.1768014661    3.1181709694   21.7766057171
H        2.8963912427    3.5068734407   20.3016385354
H        2.1068760427    3.7394812920   23.2430013085
H        4.7447575353    4.1635974681   21.7131948904
H        3.8534826023    5.1810162345   24.4599864601
H        5.4157063627    5.4950573791   23.6959085352
H        2.4884092298    6.9482963916   24.4164229276
H        2.2129935178    9.3179842874   23.6337030127
H        2.5639939715    8.8534345500   21.9665781441
H        0.1460819193    7.9729552029   23.6053686021
H        0.6943343502    6.2219410158   21.9427642536
H        0.8826648565    7.4533400502   20.6803091403
H       -1.6934282919    6.7675164912   22.1803210475
H       -1.2291010531    8.8496743324   19.9850240300
H       -2.7707031496    8.5040896779   20.8036486903
H       -2.4193587345   10.9831984504   20.8376502614