3    
Iteration 36 Energy -92.35408361
C        0.0304548833   -0.0047967302   -0.0001123808
N       -1.0881201190    0.1995750316    0.0111742838
H        1.0627386922   -0.1934025552   -0.0105283481
3    
Iteration 35 Energy -92.35408361
C        0.0304548443   -0.0047967712   -0.0001123802
N       -1.0881201456    0.1995750596    0.0111742840
H        1.0627387578   -0.1934025422   -0.0105283489
3    
Iteration 34 Energy -92.35407142
C        0.0303414127   -0.0089884139   -0.0000918224
N       -1.0872142652    0.2014294478    0.0111558345
H        1.0619463090   -0.1910652877   -0.0105304572
3    
Iteration 33 Energy -92.35383808
C        0.0249852329   -0.0286612815    0.0000573975
N       -1.0863272231    0.2111647445    0.0111012708
H        1.0664154466   -0.1811277167   -0.0106251134
3    
Iteration 32 Energy -92.35324621
C        0.0233232931   -0.0494157759    0.0001712159
N       -1.0812675223    0.2204013937    0.0110033887
H        1.0630176857   -0.1696098716   -0.0106410497
3    
Iteration 31 Energy -92.35231297
C        0.0197881483   -0.0699690697    0.0003045854
N       -1.0772159860    0.2298287601    0.0109156491
H        1.0625012942   -0.1584839441   -0.0106866796
3    
Iteration 30 Energy -92.35102582
C        0.0162110697   -0.0907872411    0.0004396340
N       -1.0723308445    0.2392356853    0.0108188905
H        1.0611932313   -0.1470726979   -0.0107249696
3    
Iteration 29 Energy -92.34939530
C        0.0126359183   -0.1117100670    0.0005751439
N       -1.0666121686    0.2485429115    0.0107134791
H        1.0590497068   -0.1354570983   -0.0107550680
3    
Iteration 28 Energy -92.34743460
C        0.0090821803   -0.1326488818    0.0007104933
N       -1.0600727392    0.2577095133    0.0105997430
H        1.0560640153   -0.1236848853   -0.0107766814
3    
Iteration 27 Energy -92.34515695
C        0.0055583276   -0.1535475184    0.0008453309
N       -1.0527305561    0.2667116916    0.0104779888
H        1.0522456850   -0.1117884270   -0.0107897648
3    
Iteration 26 Energy -92.34257461
C        0.0020673662   -0.1743669401    0.0009794439
N       -1.0446077216    0.2755347707    0.0103485257
H        1.0476138120   -0.0997920844   -0.0107944147
3    
Iteration 25 Energy -92.33969868
C       -0.0013906075   -0.1950781249    0.0011126973
N       -1.0357285939    0.2841692701    0.0102116637
H        1.0421926579   -0.0877153990   -0.0107908062
3    
Iteration 24 Energy -92.33653950
C       -0.0048173030   -0.2156585138    0.0012450061
N       -1.0261187886    0.2926089326    0.0100677117
H        1.0360095481   -0.0755746726   -0.0107791629
3    
Iteration 23 Energy -92.33310717
C       -0.0082159051   -0.2360900243    0.0013763216
N       -1.0158044369    0.3008495694    0.0099169747
H        1.0290937985   -0.0633837989   -0.0107597414
3    
Iteration 22 Energy -92.32941226
C       -0.0115911483   -0.2563578146    0.0015066272
N       -1.0048115970    0.3088882799    0.0097597509
H        1.0214762018   -0.0511547191   -0.0107328232
3    
Iteration 21 Energy -92.32546645
C       -0.0149495775   -0.2764494309    0.0016359371
N       -0.9931657638    0.3167228457    0.0095963292
H        1.0131887978   -0.0388976686   -0.0106987114
3    
Iteration 20 Energy -92.32128324
C       -0.0182998405   -0.2963541654    0.0017642964
N       -0.9808914497    0.3243512130    0.0094269871
H        1.0042647467   -0.0266213014   -0.0106577286
3    
Iteration 19 Energy -92.31687863
C       -0.0216529039   -0.3160625373    0.0018917814
N       -0.9680118232    0.3317710277    0.0092519887
H        0.9947381835   -0.0143327442   -0.0106102152
3    
Iteration 18 Energy -92.31227188
C       -0.0250221110   -0.3355658530    0.0020184979
N       -0.9545484048    0.3389792202    0.0090715835
H        0.9846439722   -0.0020376210   -0.0105565264
3    
Iteration 17 Energy -92.30748627
C       -0.0284230396   -0.3548558211    0.0021445779
N       -0.9405208367    0.3459716502    0.0088860052
H        0.9740173328    0.0102599172   -0.0104970281
3    
Iteration 16 Energy -92.30254993
C       -0.0318731581   -0.3739242174    0.0022701745
N       -0.9259467530    0.3527428329    0.0086954719
H        0.9628933676    0.0225571307   -0.0104320914
3    
Iteration 15 Energy -92.29749668
C       -0.0353913376   -0.3927626059    0.0023954551
N       -0.9108417873    0.3592857623    0.0085001868
H        0.9513065814    0.0348525898   -0.0103620870
3    
Iteration 14 Energy -92.29236671
C       -0.0389973216   -0.4113621408    0.0025205949
N       -0.8952197563    0.3655918434    0.0083003405
H        0.9392905344    0.0471460436   -0.0102873805
3    
Iteration 13 Energy -92.28720712
C       -0.0427112793   -0.4297134756    0.0026457712
N       -0.8790930391    0.3716509264    0.0080961152
H        0.9268777749    0.0594382954   -0.0102083315
3    
Iteration 12 Energy -92.28207222
C       -0.0465535569   -0.4478068078    0.0027711613
N       -0.8624731514    0.3774514204    0.0078876902
H        0.9141001648    0.0717311336   -0.0101252966
3    
Iteration 11 Energy -92.27702322
C       -0.0505446959   -0.4656320693    0.0028969433
N       -0.8453714775    0.3829804480    0.0076752493
H        0.9009896299    0.0840273676   -0.0100386377
3    
Iteration 10 Energy -92.27212747
C       -0.0547057294   -0.4831792562    0.0030233011
N       -0.8278001014    0.3882239975    0.0074589892
H        0.8875792873    0.0963310049   -0.0099487354
3    
Iteration 9 Energy -92.26745697
C       -0.0590587145   -0.5004388716    0.0031504321
N       -0.8097726720    0.3931670295    0.0072391283
H        0.8739048430    0.1086475883   -0.0098560055
3    
Iteration 8 Energy -92.26308608
C       -0.0636274346   -0.5174024493    0.0032785572
N       -0.7913052503    0.3977935074    0.0070159162
H        0.8600061415    0.1209846881   -0.0097609186
3    
Iteration 7 Energy -92.25908868
C       -0.0684381966   -0.5340631298    0.0034079325
N       -0.7724171183    0.4020863352    0.0067896425
H        0.8459287714    0.1333525408   -0.0096640201
3    
Iteration 6 Energy -92.25553475
C       -0.0735206141   -0.5504162520    0.0035388601
N       -0.7531315308    0.4060272066    0.0065606457
H        0.8317256014    0.1457647916   -0.0095659509
3    
Iteration 5 Energy -92.25248668
C       -0.0789078600   -0.5664597826    0.0036716934
N       -0.7334762067    0.4095964488    0.0063293196
H        0.8174575231    0.1582390801   -0.0094674581
3    
Iteration 4 Energy -92.24999566
C       -0.0846311573   -0.5821925116    0.0038067681
N       -0.7134809297    0.4127737437    0.0060960833
H        0.8031855434    0.1707945141   -0.0093692966
3    
Iteration 3 Energy -92.24809801
C       -0.0904462157   -0.5974963957    0.0039408696
N       -0.6930388977    0.4155829861    0.0058596592
H        0.7885585699    0.1832891558   -0.0092669740
3    
Iteration 2 Energy -92.24681885
C       -0.0988591369   -0.6134400726    0.0041063202
N       -0.6737909780    0.4175896091    0.0056399885
H        0.7777235714    0.1972262097   -0.0092127538
3    
Iteration 1 Energy -92.24617540
C       -0.1012348110   -0.6247081901    0.0041842221
N       -0.6526921761    0.4198642525    0.0053988482
H        0.7590004436    0.2062196837   -0.0090495154
3    
Iteration 0 Energy -92.24604268
C       -0.1088783634   -0.6365101639    0.0043221742
N       -0.6393457902    0.4205365638    0.0052498438
H        0.7532976101    0.2173493463   -0.0090384631
3    
Iteration 1 Energy -92.24632346
C       -0.1162923826   -0.6510128752    0.0044700636
N       -0.6186304268    0.4219453856    0.0050168856
H        0.7399962659    0.2304432359   -0.0089533943
3    
Iteration 2 Energy -92.24714692
C       -0.1243467273   -0.6645535601    0.0046205196
N       -0.5970865089    0.4222151005    0.0047801192
H        0.7265066927    0.2437142058   -0.0088670839
3    
Iteration 3 Energy -92.24845906
C       -0.1331062768   -0.6784674023    0.0047804048
N       -0.5759814573    0.4222997955    0.0045490032
H        0.7141611906    0.2575433530   -0.0087958532
3    
Iteration 4 Energy -92.25019381
C       -0.1426738341   -0.6921207193    0.0049479227
N       -0.5550104288    0.4216439526    0.0043227653
H        0.7027577194    0.2718525129   -0.0087371332
3    
Iteration 5 Energy -92.25228254
C       -0.1531769092   -0.7056464043    0.0051250797
N       -0.5344246661    0.4202309163    0.0041042289
H        0.6926750317    0.2867912343   -0.0086957537
3    
Iteration 6 Energy -92.25466120
C       -0.1647168035   -0.7190876271    0.0053131822
N       -0.5144370526    0.4179859203    0.0038960657
H        0.6842273126    0.3024774530   -0.0086756930
3    
Iteration 7 Energy -92.25727890
C       -0.1773527597   -0.7324638780    0.0055129677
N       -0.4952675982    0.4148394575    0.0037010014
H        0.6776938144    0.3190001667   -0.0086804142
3    
Iteration 8 Energy -92.26010285
C       -0.1910681915   -0.7457626668    0.0057241973
N       -0.4770958566    0.4107502793    0.0035211889
H        0.6732375046    0.3363881337   -0.0087118313
3    
Iteration 9 Energy -92.26311597
C       -0.2057527306   -0.7589365451    0.0059454458
N       -0.4599948299    0.4057247212    0.0033573972
H        0.6708210170    0.3545875702   -0.0087692881
3    
Iteration 10 Energy -92.26630770
C       -0.2212192764   -0.7719121425    0.0061743295
N       -0.4438900213    0.3998203709    0.0032085464
H        0.6701827541    0.3734675178   -0.0088493210
3    
Iteration 11 Energy -92.26966450
C       -0.2372511688   -0.7846063507    0.0064080969
N       -0.4285839357    0.3931283964    0.0030720573
H        0.6709085611    0.3928537005   -0.0089465993
3    
Iteration 12 Energy -92.27316549
C       -0.2536498828   -0.7969402661    0.0066442141
N       -0.4138317353    0.3857459479    0.0029448055
H        0.6725550746    0.4125700645   -0.0090554647
3    
Iteration 13 Energy -92.27678288
C       -0.2702590547   -0.8088462058    0.0068806596
N       -0.3994120367    0.3777558859    0.0028239890
H        0.6747445479    0.4324660661   -0.0091710938
3    
Iteration 14 Energy -92.28048415
C       -0.2869647493   -0.8202688965    0.0071159333
N       -0.3851583870    0.3692204340    0.0027075013
H        0.6771965928    0.4524242087   -0.0092898797
3    
Iteration 15 Energy -92.28423428
C       -0.3036849117   -0.8311638084    0.0073489328
N       -0.3709581157    0.3601842156    0.0025939050
H        0.6797164839    0.4723553390   -0.0094092828
3    
Iteration 16 Energy -92.28799775
C       -0.3203582351   -0.8414949006    0.0075788218
N       -0.3567386759    0.3506801726    0.0024822551
H        0.6821703674    0.4921904743   -0.0095275220
3    
Iteration 17 Energy -92.29174025
C       -0.3369361146   -0.8512328288    0.0078049337
N       -0.3424538969    0.3407348985    0.0023719244
H        0.6844634680    0.5118736764   -0.0096433032
3    
Iteration 18 Energy -92.29543012
C       -0.3533777300   -0.8603538420    0.0080267128
N       -0.3280738316    0.3303725182    0.0022624743
H        0.6865250181    0.5313570699   -0.0097556322
3    
Iteration 19 Energy -92.29903948
C       -0.3696473629   -0.8688392469    0.0082436825
N       -0.3135780424    0.3196172540    0.0021535698
H        0.6882988618    0.5505977391   -0.0098636973
3    
Iteration 20 Energy -92.30254487
C       -0.3857131425   -0.8766752225    0.0084554306
N       -0.2989513838    0.3084949556    0.0020449260
H        0.6897379828    0.5695560131   -0.0099668017
3    
Iteration 21 Energy -92.30592752
C       -0.4015466464   -0.8838527599    0.0086616049
N       -0.2841814875    0.2970337893    0.0019362781
H        0.6908015904    0.5881947168   -0.0100643281
3    
Iteration 22 Energy -92.30917314
C       -0.4171229365   -0.8903675203    0.0088619128
N       -0.2692574029    0.2852642261    0.0018273658
H        0.6914537959    0.6064790404   -0.0101557237
3    
Iteration 23 Energy -92.31227156
C       -0.4324207000   -0.8962194344    0.0090561210
N       -0.2541690027    0.2732184776    0.0017179300
H        0.6916631592    0.6243767030   -0.0102404961
3    
Iteration 24 Energy -92.31521598
C       -0.4474222521   -0.9014119493    0.0092440520
N       -0.2389068603    0.2609295686    0.0016077155
H        0.6914025689    0.6418581269   -0.0103182126
3    
Iteration 25 Energy -92.31800232
C       -0.4621132603   -0.9059509299    0.0094255762
N       -0.2234623870    0.2484302568    0.0014964773
H        0.6906491038    0.6588964193   -0.0103884986
3    
Iteration 26 Energy -92.32062844
C       -0.4764821696   -0.9098433316    0.0096005993
N       -0.2078280815    0.2357520037    0.0013839886
H        0.6893837076    0.6754670741   -0.0104510329
3    
Iteration 27 Energy -92.32309347
C       -0.4905194040   -0.9130958367    0.0097690473
N       -0.1919978070    0.2229241519    0.0012700469
H        0.6875906676    0.6915474310   -0.0105055393
3    
Iteration 28 Energy -92.32539715
C       -0.5042164810   -0.9157136584    0.0099308517
N       -0.1759670522    0.2099733976    0.0011544798
H        0.6852569897    0.7071160070   -0.0105517767
3    
Iteration 29 Energy -92.32753934
C       -0.5175651757   -0.9176996744    0.0100859357
N       -0.1597331562    0.1969235852    0.0010371486
H        0.6823717884    0.7221518355   -0.0105895294
3    
Iteration 30 Energy -92.32951952
C       -0.5305568368   -0.9190539732    0.0102342052
N       -0.1432955128    0.1837957913    0.0009179493
H        0.6789258060    0.7366339281   -0.0106185996
3    
Iteration 31 Energy -92.33133649
C       -0.5431818935   -0.9197738118    0.0103755429
N       -0.1266557699    0.1706086517    0.0007968141
H        0.6749111200    0.7505409062   -0.0106388021
3    
Iteration 32 Energy -92.33298805
C       -0.5554295288   -0.9198539250    0.0105098063
N       -0.1098180914    0.1573788795    0.0006737115
H        0.6703210767    0.7638507917   -0.0106499629
3    
Iteration 33 Energy -92.33447090
C       -0.5672874222   -0.9192871037    0.0106368274
N       -0.0927895796    0.1441219877    0.0005486476
H        0.6651504583    0.7765408622   -0.0106519202
3    
Iteration 34 Energy -92.33578062
C       -0.5787413811   -0.9180649906    0.0107564127
N       -0.0755811068    0.1308533512    0.0004216705
H        0.6593959445    0.7885873856   -0.0106445283
3    
Iteration 35 Energy -92.33691176
C       -0.5897744825   -0.9161791598    0.0108683382
N       -0.0582091454    0.1175900547    0.0002928815
H        0.6530570844    0.7999648513   -0.0106276648
3    
Iteration 36 Energy -92.33785813
C       -0.6003648429   -0.9136228449    0.0109723335
N       -0.0407001941    0.1043547781    0.0001624658
H        0.6461384935    0.8106438129   -0.0106012443
3    
Iteration 37 Energy -92.33861325
C       -0.6104795168   -0.9103945972    0.0110680318
N       -0.0231025350    0.0911854689    0.0000307762
H        0.6386555083    0.8205848745   -0.0105652531
3    
Iteration 38 Energy -92.33917110
C       -0.6200563340   -0.9065084249    0.0111548180
N       -0.0055212749    0.0781633353   -0.0001014123
H        0.6306510654    0.8297208359   -0.0105198508
3    
Iteration 39 Energy -92.33953197
C       -0.6284488885   -0.9011481635    0.0112218641
N        0.0124543897    0.0659415421   -0.0002416011
H        0.6210679553    0.8365823677   -0.0104467081
3    
Iteration 40 Energy -92.33962651
C       -0.6374543470   -0.8975154744    0.0113035723
N        0.0267899280    0.0509095904   -0.0003290441
H        0.6157378755    0.8479816302   -0.0104409733
3    
Iteration 41 Energy -92.33970705
C       -0.6398664254   -0.8937888862    0.0113127672
N        0.0365720181    0.0490780529   -0.0004275434
H        0.6083678638    0.8460865795   -0.0103516689
3    
Iteration 42 Energy -92.33971310
C       -0.6400260514   -0.8940156643    0.0113155575
N        0.0361265882    0.0484573118   -0.0004198131
H        0.6089729196    0.8469340987   -0.0103621894
3    
Iteration 43 Energy -92.33971310
C       -0.6400260530   -0.8940156536    0.0113155574
N        0.0361265868    0.0484572816   -0.0004198130
H        0.6089729226    0.8469341182   -0.0103621896
