18   
Iteration 0 Energy -449.79401200
O        0.8559100000   -1.3823600000    0.3174600000
H        1.6752400000   -1.8477400000    0.4858000000
H        1.1176100000   -0.4684300000    0.2057500000
O       -1.0986300000   -0.8583700000    2.1731900000
H       -0.4031000000   -1.1460800000    1.5818400000
H       -1.0851100000    0.0968300000    2.1128200000
O        1.8644800000    1.2201800000    1.3331100000
H        2.0104700000    1.8829200000    0.6580600000
H        2.6420500000    0.6632600000    1.2947900000
O        0.4360100000    0.8591100000   -1.7990100000
H        1.2952700000    0.5943600000   -1.4706600000
H        0.1355600000    0.1112200000   -2.3153700000
O       -0.8009300000   -2.0911300000   -1.5730000000
H       -0.2203200000   -1.8297700000   -0.8582800000
H       -0.3280600000   -1.8458100000   -2.3682600000
O       -1.4967600000    2.2679100000   -0.3295400000
H       -0.8467900000    1.6940800000   -0.7351300000
H       -2.3252600000    1.7984600000   -0.4267000000
18   
Iteration 1 Energy -449.81769941
O        0.8853956278   -1.3064951407    0.3827113827
H        1.7007302628   -1.8558193384    0.4977728338
H        1.2210020895   -0.3778348428    0.4095687121
O       -1.1537123868   -0.8693233651    2.2379947704
H       -0.4428547297   -1.1590218177    1.6109324295
H       -1.0706595579    0.1118969226    2.1178221601
O        1.8437535716    1.1326106633    1.2961660239
H        1.9880820415    1.8638689344    0.6389075176
H        2.7475338918    0.7209829060    1.2780413477
O        0.4195186257    0.9271768817   -1.7914164108
H        1.3306231490    0.6074269804   -1.5672618900
H        0.0929015226    0.1470795022   -2.3071822687
O       -0.8951536896   -2.1572761613   -1.6671789189
H       -0.3062350349   -1.9292231309   -0.8990286464
H       -0.3025194282   -1.9073706940   -2.4231774434
O       -1.4825175028    2.2968810549   -0.3099070860
H       -0.8400757687    1.7148769301   -0.7942130407
H       -2.3081726854    1.7582037157   -0.4236814751
18   
Iteration 2 Energy -449.82580353
O        0.8492239147   -1.2713312756    0.3613034490
H        1.6681373243   -1.8216716446    0.4679488943
H        1.1931813755   -0.3681902353    0.5977501027
O       -1.1661981035   -0.8676976758    2.2635086364
H       -0.4630214286   -1.1916892249    1.6356290237
H       -1.0768441326    0.1171869453    2.1338562145
O        1.8971396812    1.0181279397    1.2027920499
H        1.9259995980    1.8163453582    0.6051195382
H        2.8692284101    0.8145676641    1.2872262223
O        0.4277191554    0.9377383367   -1.8242669034
H        1.3497215734    0.6100013758   -1.6429687290
H        0.0480472868    0.1704534085   -2.3282249120
O       -0.8948892907   -2.1650037326   -1.6647450837
H       -0.3124648317   -1.9173587412   -0.8919444780
H       -0.2706378117   -1.9880485483   -2.4237683002
O       -1.5004442997    2.3051085122   -0.2815977047
H       -0.8151057138    1.7927699225   -0.7930787856
H       -2.3011527113    1.7273316157   -0.4176692392
18   
Iteration 3 Energy -449.82842538
O        0.8346666151   -1.2014813549    0.3352796907
H        1.5879941404   -1.8211334312    0.4898467984
H        1.1913768693   -0.3424825582    0.7011827898
O       -1.1792708795   -0.8846724843    2.2929798447
H       -0.5087531765   -1.2179252118    1.6430826716
H       -1.0801573147    0.0914497525    2.1506274567
O        1.9926602591    0.8951601451    1.1113592934
H        1.8361937391    1.7102648073    0.5753661545
H        2.9600071026    0.9597414984    1.2992910394
O        0.4139743437    0.9683627647   -1.8499590312
H        1.3208067502    0.5949139699   -1.7233678674
H       -0.0151173083    0.2181741855   -2.3267805864
O       -0.8732160438   -2.1461073265   -1.6508262409
H       -0.3071669055   -1.8458673291   -0.8921422345
H       -0.2157622826   -2.1064648745   -2.3937832720
O       -1.4837158130    2.3007584932   -0.2555972885
H       -0.7948192738    1.8499359581   -0.8065292973
H       -2.2520608298    1.6960129962   -0.4131599298
18   
Iteration 4 Energy -449.83065568
O        0.7854675763   -1.2653290113    0.2970962237
H        1.4878840277   -1.9072255585    0.5324105493
H        1.1923803916   -0.4181512877    0.6245286959
O       -1.1712221685   -0.9085927919    2.2937760594
H       -0.5295806690   -1.2227811022    1.6145558243
H       -1.0931448396    0.0655117038    2.1674942035
O        2.0594942484    0.9523550009    1.1120880637
H        1.8173052102    1.7459778499    0.5961664188
H        3.0055899721    1.0786659107    1.3274658224
O        0.3949816220    0.9792656653   -1.8719493840
H        1.2867958149    0.5818311403   -1.7546491340
H       -0.0724952768    0.2441446677   -2.3252139774
O       -0.8393124160   -2.1052169486   -1.6307213482
H       -0.2842782715   -1.7652110729   -0.8886453029
H       -0.1693744677   -2.1819563361   -2.3501977252
O       -1.4569225522    2.2881389985   -0.2400319171
H       -0.7703634703    1.8742763328   -0.8119048514
H       -2.2155647430    1.6829368388   -0.4053982328
18   
Iteration 5 Energy -449.83322256
O        0.8120239869   -1.2493299578    0.3404635177
H        1.4443038621   -1.9511787640    0.6021864933
H        1.3052403076   -0.4293648908    0.5844044158
O       -1.1622250515   -0.9250357343    2.2859243793
H       -0.5406943468   -1.2208991455    1.5799644428
H       -1.1114810673    0.0546023084    2.1845987472
O        2.0213049335    0.9692405339    1.0983543467
H        1.8184981153    1.8007744527    0.6239370927
H        2.9732828664    1.0731792433    1.3127779604
O        0.3713590644    0.9683989193   -1.8928169767
H        1.2653294916    0.5790131226   -1.7551012689
H       -0.1132595053    0.2332285256   -2.3313016111
O       -0.8368760317   -2.0721623485   -1.6652389376
H       -0.3018574505   -1.7391654002   -0.9056356242
H       -0.1377524578   -2.2113393141   -2.3456517153
O       -1.4336477239    2.2781637007   -0.2279699644
H       -0.7442410179    1.8769033499   -0.8070437867
H       -2.2016679888    1.6836113982   -0.3949815248
18   
Iteration 6 Energy -449.83617501
O        0.8170718302   -1.2607178908    0.3739480562
H        1.3945156442   -1.9905483450    0.6906467346
H        1.3370836235   -0.4458435184    0.5794993899
O       -1.1444045108   -0.9597721319    2.2761426246
H       -0.5354665415   -1.1740686346    1.5277177818
H       -1.1497796539    0.0266558693    2.2166547341
O        2.0280773035    0.9592906325    1.0519188942
H        1.7819884563    1.8242311354    0.6490152301
H        2.9710029487    1.1162947030    1.2946858710
O        0.3148683405    0.9672551746   -1.9330528329
H        1.2043821741    0.5658348371   -1.7856201808
H       -0.1809794372    0.2125297894   -2.3293638691
O       -0.8028193419   -1.9876729184   -1.7048592002
H       -0.2777762681   -1.6840226323   -0.9227477362
H       -0.0799509649   -2.2744988814   -2.3145657419
O       -1.3807675829    2.2677708927   -0.1982700707
H       -0.7117499879    1.8723193321   -0.8092627750
H       -2.1576560504    1.6836025856   -0.3756169278
18   
Iteration 7 Energy -449.83895303
O        0.8407895124   -1.3049283621    0.4690400170
H        1.1332901479   -2.0615662482    1.0344447555
H        1.5000966486   -0.5736977028    0.5906350979
O       -1.0738255145   -1.0786681290    2.2347055616
H       -0.5667528430   -0.9970808589    1.3799229639
H       -1.3152781508   -0.1218445095    2.3609359915
O        2.1283658404    0.9755592157    0.8089695992
H        1.5808683669    1.8107702055    0.7293994738
H        2.9395078549    1.3457863342    1.2572738115
O        0.0300604473    0.9053487963   -2.1498135243
H        0.9129099071    0.4967323052   -1.9492663027
H       -0.5131095458    0.0827105412   -2.2821123729
O       -0.4314909399   -1.5946174430   -1.9259262960
H       -0.0626274740   -1.4375529644   -1.0118886235
H       -0.0296558764   -2.4850501953   -2.1172790635
O       -1.1183798561    2.2002429783   -0.0613612833
H       -0.5725865328    1.8606831262   -0.8246184604
H       -1.9545420350    1.6958129069   -0.2561913839
18   
Iteration 8 Energy -449.84458502
O        0.8373257744   -1.2763667920    0.3945944872
H        1.3132612760   -2.0115188479    0.8485560136
H        1.3893693696   -0.4748786763    0.5873473624
O       -1.1388239636   -1.0126343271    2.2806528709
H       -0.5465748018   -1.0875079337    1.4874123848
H       -1.2717485206   -0.0305329905    2.2975666550
O        2.0741760803    0.9315522523    0.9055315715
H        1.6506998921    1.8067906317    0.7044835934
H        2.9581160827    1.2208030506    1.2487781016
O        0.1452953425    0.9710553015   -2.0600725752
H        1.0378959378    0.5843082074   -1.8779367399
H       -0.3271162043    0.1418156284   -2.3250146198
O       -0.6281723203   -1.7575463800   -1.7783598125
H       -0.1424258135   -1.6350446784   -0.9204592437
H       -0.0329125562   -2.4045804417   -2.2360985858
O       -1.2028472432    2.2195177446   -0.1335358467
H       -0.6447780567    1.8200882272   -0.8528460298
H       -2.0431003077    1.7133200214   -0.2837296167
18   
Iteration 9 Energy -449.85006200
O        0.8500068895   -1.3052357318    0.4212496714
H        1.3380835138   -2.0033340975    0.9168350253
H        1.3726267496   -0.4747042431    0.5718993471
O       -1.1552672575   -1.0183464988    2.2932638027
H       -0.5598273295   -1.0675815522    1.5021147127
H       -1.3218375520   -0.0427811232    2.3144424103
O        2.0887821589    0.9331320637    0.8414337773
H        1.5906265015    1.7823002532    0.7292923017
H        2.9426427000    1.2497003404    1.2285384834
O        0.0685558744    0.9312732553   -2.1361961701
H        0.9903479964    0.6405680727   -1.9271635433
H       -0.3450599745    0.0448550906   -2.2980585971
O       -0.5409486323   -1.6496522334   -1.8042048537
H       -0.0784658655   -1.6196360133   -0.9256933311
H       -0.0628537710   -2.3998957262   -2.2382427435
O       -1.1166538499    2.1890576697   -0.1085161787
H       -0.6362147664    1.7836630037   -0.8794399871
H       -1.9969034241    1.7452574675   -0.2146841610
18   
Iteration 10 Energy -449.77002006
O        0.8519903229   -1.3827824904    0.5484115979
H        1.4295816267   -1.9395289423    1.1117623160
H        1.3086384788   -0.4986885103    0.5646070297
O       -1.2228186362   -1.0164955659    2.3403397091
H       -0.5726035970   -1.0509471878    1.5987472310
H       -1.4867005932   -0.0671149598    2.3127031025
O        2.0571812379    0.9939854310    0.5929178747
H        1.3577841617    1.6533109127    0.7781785529
H        2.8183737921    1.2886090361    1.1366333939
O       -0.2147167712    0.6499561343   -2.3379837587
H        0.7359753700    0.8934665784   -2.2649746920
H       -0.1846843942   -0.2692853195   -1.9458128457
O       -0.1903563061   -1.3079253811   -1.8498388951
H        0.1104225755   -1.5490455779   -0.9320228067
H       -0.2042123382   -2.1696304412   -2.3234415515
O       -0.7536926714    2.0003626889   -0.1032186769
H       -0.7003200276    1.6244049713   -1.0245333288
H       -1.7122022903    1.8659886203    0.0843957012
18   
Iteration 11 Energy -449.84363171
O        0.8417580000   -1.3464417214    0.4904961215
H        1.4082066052   -1.9650701590    0.9992865894
H        1.3175625200   -0.4771230909    0.5708202751
O       -1.1930473304   -1.0077110433    2.3177669088
H       -0.5573406941   -1.0795603117    1.5652407115
H       -1.3924640759   -0.0416441518    2.2951545648
O        2.0620118318    0.9493310243    0.7228662576
H        1.4769255367    1.7356928796    0.7618245921
H        2.8825597809    1.2477171062    1.1727000667
O       -0.0673553309    0.7780763784   -2.2406294532
H        0.9037176310    0.8077183480   -2.0774772416
H       -0.2463620853   -0.1912892076   -2.0991736292
O       -0.4008242329   -1.4512767864   -1.8268192730
H        0.0199749574   -1.5743101861   -0.9346493070
H       -0.1348524859   -2.2719917824   -2.3025274487
O       -0.9394012529    2.1020384420   -0.1023941525
H       -0.6689703435    1.6832954628   -0.9627751691
H       -1.8844590788    1.8211887966   -0.0628404519
18   
Iteration 12 Energy -449.85565429
O        0.8233484099   -1.3402642847    0.4805350679
H        1.3777065313   -1.9770107540    0.9791271437
H        1.3161016888   -0.4812452395    0.5738909402
O       -1.1864259162   -1.0084492368    2.3149227223
H       -0.5522151198   -1.0969584207    1.5623848550
H       -1.3768170198   -0.0405564172    2.2840846952
O        2.0688066052    0.9519263257    0.7346157268
H        1.4805305719    1.7351783685    0.7444877565
H        2.8835183612    1.2591140519    1.1868202371
O       -0.0085046703    0.9196287485   -2.2491649540
H        0.9551188579    0.8322148305   -2.0718123310
H       -0.3132343520   -0.0270148929   -2.1785586068
O       -0.4321802932   -1.5891046273   -1.7772002404
H        0.0078623459   -1.6453467814   -0.8899746503
H       -0.1160743472   -2.3790646406   -2.2665801933
O       -0.9539465104    2.1049705759   -0.1035541345
H       -0.6503806184    1.6894266152   -0.9542695762
H       -1.8955745718    1.8111957766   -0.0828844965
18   
Iteration 13 Energy -449.85698943
O        0.8171154455   -1.3325915504    0.4918121007
H        1.4016130437   -1.9697180353    0.9571790807
H        1.3100578137   -0.4726295007    0.5774727061
O       -1.2009450300   -0.9978774298    2.3265609556
H       -0.5430256456   -1.1184689688    1.5977213715
H       -1.3778875873   -0.0292050413    2.2534158169
O        2.0089787109    0.9350246357    0.7253346912
H        1.4437966342    1.7386130266    0.7418191404
H        2.8378482258    1.2295038442    1.1649006963
O       -0.0333208144    0.9003144615   -2.2637621852
H        0.9356150211    0.8841620122   -2.0841111128
H       -0.2462986032   -0.0716481866   -2.2353516325
O       -0.4438840837   -1.5732248653   -1.7298817621
H        0.0289660857   -1.6834022411   -0.8667143202
H       -0.1132074418   -2.3342335041   -2.2569030961
O       -0.9185101124    2.0936717628   -0.0875883351
H       -0.6126893705    1.7035318006   -0.9508122896
H       -1.8665823394    1.8168177779   -0.0742218633
18   
Iteration 14 Energy -449.86048170
O        0.8114922010   -1.3566948348    0.5362212863
H        1.4333859050   -1.9758294067    0.9751941474
H        1.2925833431   -0.4875422530    0.5958078305
O       -1.2295703428   -0.9876718174    2.3505744314
H       -0.5483606115   -1.1567498016    1.6529871168
H       -1.4001197212   -0.0245011542    2.2171506146
O        1.9562218732    0.9389141266    0.6615813480
H        1.3421358071    1.7041224111    0.7190190013
H        2.7555211191    1.2457864669    1.1454096538
O       -0.0711832460    0.9053857672   -2.2994811159
H        0.9071626200    0.9629061315   -2.1901632363
H       -0.2175611187   -0.0749401982   -2.1911917505
O       -0.4115747296   -1.5499979722   -1.7286403835
H        0.0582054084   -1.6413170877   -0.8606189289
H       -0.1034042596   -2.3377098715   -2.2282458612
O       -0.7977049932    2.0384144987   -0.0777670270
H       -0.5872250266    1.6771861435   -0.9811459417
H       -1.7623642803    1.8388788507   -0.0098212244
18   
Iteration 15 Energy -449.86615675
O        0.8023231678   -1.3785560446    0.5924056513
H        1.4660515944   -1.9933286150    0.9751130948
H        1.2681987345   -0.4981961000    0.6275810238
O       -1.2609180664   -0.9772673995    2.3773221878
H       -0.5562618805   -1.2015054439    1.7188076315
H       -1.4181231064   -0.0255990462    2.1634351601
O        1.8681115331    0.9436311304    0.5732678807
H        1.1720389493    1.6359076910    0.6575697244
H        2.6090004595    1.2818611124    1.1269655679
O       -0.1014302375    0.9095736563   -2.3414030543
H        0.8794986591    1.0165200036   -2.3459519310
H       -0.2103501375   -0.0664409349   -2.1403283855
O       -0.3637950995   -1.5079087103   -1.7102560332
H        0.0864089845   -1.5717741204   -0.8247108698
H       -0.0651189000   -2.3119202281   -2.1928214985
O       -0.6169302160    1.9619771526   -0.0598710729
H       -0.5421425239    1.6316316581   -0.9969802196
H       -1.5889219740    1.8700342386    0.0867251012
18   
Iteration 16 Energy -449.86942529
O        0.7957187402   -1.3916793776    0.6598777034
H        1.4967362588   -2.0184218412    0.9513663767
H        1.2428348642   -0.4966865002    0.6695254823
O       -1.2866917237   -0.9671078288    2.4004657850
H       -0.5646455685   -1.2515160412    1.7837730322
H       -1.4220276700   -0.0344476577    2.0967248763
O        1.7471821000    0.9433340687    0.4819916992
H        0.9348803192    1.5111719759    0.5232663421
H        2.3784667314    1.3423125640    1.1276567539
O       -0.1215229664    0.9199768330   -2.3625274458
H        0.8466395442    1.0253934524   -2.5231178572
H       -0.2205985736   -0.0439972941   -2.0739856364
O       -0.3245354392   -1.4585856730   -1.6875605495
H        0.0919133893   -1.4573308439   -0.7736919903
H        0.0115010958   -2.2629512089   -2.1515262226
O       -0.3850058046    1.8776536154   -0.0408472197
H       -0.4503724351    1.5796691261   -0.9924454689
H       -1.3428329279    1.9018526326    0.1979242970
18   
Iteration 17 Energy -449.85462943
O        0.8006937813   -1.3154614194    0.6195107823
H        1.4460150427   -2.0343547723    0.8359278779
H        1.2698581372   -0.4223176234    0.6685385788
O       -1.2207506491   -0.9885516115    2.3624582424
H       -0.5447390101   -1.2385614163    1.6809814554
H       -1.3379026222   -0.0349935183    2.1022383120
O        1.8101988311    0.8429939380    0.5925601362
H        0.9534456981    1.3321952252    0.3855572856
H        2.3254001611    1.4004589948    1.2243024210
O        0.0038043885    0.9160926394   -2.2233413935
H        0.9544677507    0.7778547896   -2.4407445511
H       -0.3851861923   -0.0043601246   -2.0071588073
O       -0.4036417838   -1.4794047672   -1.6823563527
H       -0.0600447151   -1.3743360095   -0.7268471052
H        0.1384073939   -2.1447047588   -2.1873155509
O       -0.4796184980    2.0100326169   -0.0683671926
H       -0.3953076154    1.5316727129   -0.9482564294
H       -1.4474601556    1.9443851065    0.0991822552
18   
Iteration 18 Energy -449.86998514
O        0.7951927789   -1.3476138969    0.6389300854
H        1.4624275149   -2.0248077598    0.9052510773
H        1.2626708357   -0.4561208175    0.6618032292
O       -1.2550419274   -0.9813443846    2.3837122708
H       -0.5535560720   -1.2421693419    1.7330553190
H       -1.3890532879   -0.0389492180    2.1017034296
O        1.8207539704    0.8751991191    0.5420393975
H        0.9700237627    1.3973088480    0.4536438114
H        2.3758209492    1.3603143684    1.1962164182
O       -0.0789711515    0.9308602896   -2.2968326572
H        0.8891303931    0.9260270453   -2.4829446379
H       -0.3056275929   -0.0291686101   -2.0499575921
O       -0.3513122463   -1.4644207604   -1.6725353853
H        0.0397323790   -1.4293213541   -0.7395955179
H        0.0665893593   -2.2160890642   -2.1651209022
O       -0.4612707278    1.9568905226   -0.0690330308
H       -0.4377892377    1.5707732208   -0.9946301589
H       -1.4220797624    1.9312717953    0.1411648038
18   
Iteration 19 Energy -449.87649863
O        0.7807466704   -1.3556841968    0.6405873403
H        1.4433104324   -2.0315668683    0.9021018200
H        1.2892161823   -0.4852654973    0.6763419059
O       -1.2574158565   -0.9788110289    2.3848648670
H       -0.5452016902   -1.2451625191    1.7482806276
H       -1.4003559478   -0.0421968176    2.0982466954
O        1.8150689847    0.8815104386    0.5329690558
H        0.9878567823    1.4411352170    0.4734047015
H        2.3717353917    1.3350458928    1.2006042251
O       -0.1143236064    0.9183277375   -2.3088891033
H        0.8532792335    0.9677769578   -2.4890946291
H       -0.2545622273   -0.0573214014   -2.0888850334
O       -0.3504060209   -1.4569741891   -1.6388838412
H        0.0797185763   -1.4864753377   -0.7323872496
H        0.0539413461   -2.2002053157   -2.1427935747
O       -0.4628651988    1.9648074368   -0.0887097567
H       -0.4496559468    1.6301289647   -1.0333492485
H       -1.4124471690    1.9195705284    0.1524611570
18   
Iteration 20 Energy -449.88095519
O        0.7866074352   -1.3650098723    0.6394384841
H        1.4552735014   -2.0368653098    0.8873741171
H        1.2915214508   -0.4877889224    0.6618403140
O       -1.2541450947   -0.9782103526    2.3860219488
H       -0.5352106935   -1.2474086157    1.7585386564
H       -1.4085167762   -0.0457297166    2.0958792854
O        1.7352683836    0.8811198789    0.5207508932
H        0.9080324147    1.4397247827    0.4219802927
H        2.2683487267    1.3302406839    1.2143408482
O       -0.1415362806    0.9053019992   -2.3219543492
H        0.8214855689    0.9745376855   -2.5169012479
H       -0.2430695860   -0.0743244748   -2.1045140066
O       -0.3571163472   -1.4501129395   -1.6101161769
H        0.0767109553   -1.4924963429   -0.7074397291
H        0.0831965664   -2.1611964103   -2.1242859407
O       -0.3670190449    1.9743772390   -0.0775576526
H       -0.3789880086    1.6340764089   -1.0232651928
H       -1.3132032360    1.9184042810    0.1867394152
18   
Iteration 21 Energy -449.88334457
O        0.7817562804   -1.3819033374    0.6433660822
H        1.4766475215   -2.0319660134    0.8789387628
H        1.2441907578   -0.4721389360    0.6442122790
O       -1.2491165323   -0.9869542796    2.3920830507
H       -0.5149089888   -1.2368396702    1.7749039648
H       -1.4306611973   -0.0615810517    2.0963032795
O        1.6951347714    0.8550812658    0.5267950423
H        0.8381517621    1.3760108518    0.3977134182
H        2.1691151851    1.3076834063    1.2584107407
O       -0.1929081810    0.9079768082   -2.3172460365
H        0.7572419528    1.0163401118   -2.5540796600
H       -0.2493936484   -0.0769710035   -2.0945721002
O       -0.3283293484   -1.4336286618   -1.5608914748
H        0.1158897384   -1.5270562145   -0.6653220466
H        0.1079531012   -2.1262087949   -2.1010006541
O       -0.2654135023    2.0047626855   -0.1614827368
H       -0.3648581080    1.6663275665   -1.1083824624
H       -1.1628516315    1.9197052701    0.2371205091
18   
Iteration 22 Energy -449.88624631
O        0.7773367980   -1.3787452367    0.6489528839
H        1.4564659138   -2.0587994291    0.8422122675
H        1.2671958873   -0.4703834623    0.6918547804
O       -1.2217590030   -1.0127521876    2.3932354485
H       -0.4860655587   -1.2196128852    1.7627607522
H       -1.4336323369   -0.0907946266    2.1072669039
O        1.6563643122    0.8064983272    0.5537034231
H        0.8457981727    1.3747603813    0.2874032160
H        2.0336940104    1.2424289558    1.3431504526
O       -0.2313542904    0.9175511224   -2.3143992205
H        0.7058921166    0.9958834973   -2.6018052339
H       -0.3154536593   -0.0660522619   -2.0723165196
O       -0.3178944303   -1.4346600469   -1.5380142246
H        0.1311426338   -1.5193939766   -0.6361070919
H        0.1563650462   -2.0976074097   -2.0840437991
O       -0.2245691619    2.1046355514   -0.2076265508
H       -0.2953806125    1.6907255768   -1.1370816131
H       -1.0765059062    1.9349581138    0.2477240830
18   
Iteration 23 Energy -449.88690670
O        0.7770327599   -1.4094414576    0.6670133001
H        1.5004146693   -2.0381135532    0.8706514448
H        1.2020733458   -0.4629488822    0.6474128063
O       -1.2161324359   -1.0237595368    2.4023645144
H       -0.4814060162   -1.2574725957    1.7779748394
H       -1.4281240483   -0.1029864610    2.1090378402
O        1.6655203818    0.8129696381    0.5846165943
H        0.9113746228    1.4389888028    0.2611283610
H        1.9932639320    1.2275694240    1.4049614988
O       -0.2277961917    0.9076545784   -2.3102274819
H        0.6931577088    0.9875115306   -2.6415250377
H       -0.3096270095   -0.0830651027   -2.0963502262
O       -0.3338313797   -1.4285745686   -1.5475566897
H        0.0913126513   -1.4969700366   -0.6297880166
H        0.1667051131   -2.0694926205   -2.0977851117
O       -0.2155608499    2.1143533229   -0.2221905000
H       -0.3057304383    1.6672090814   -1.1396214183
H       -1.0550068836    1.9352084404    0.2467532404
18   
Iteration 24 Energy -449.88829570
O        0.7550188202   -1.3723119010    0.6625256907
H        1.4435510080   -2.0352152953    0.8850932390
H        1.2365610934   -0.4526805549    0.6771817612
O       -1.2202958917   -1.0518078475    2.4299770757
H       -0.4988134722   -1.2946057220    1.7905444237
H       -1.4447374191   -0.1363508509    2.1264395529
O        1.7031148416    0.8548843313    0.5875674271
H        0.9153923894    1.4432888599    0.2606896730
H        1.9535631281    1.2325634229    1.4561213041
O       -0.2678014701    0.9149873663   -2.3420999751
H        0.6274007983    0.9686539851   -2.7436803942
H       -0.3347095238   -0.0643877812   -2.0752780912
O       -0.2855114654   -1.4077620751   -1.5723110521
H        0.1059169633   -1.4728444106   -0.6385994955
H        0.1703550106   -2.1129559935   -2.0818448687
O       -0.1514595386    2.1071531325   -0.2321843749
H       -0.2951674410    1.6738027376   -1.1530285777
H       -0.9847379036    1.9242286000    0.2497566355
18   
Iteration 25 Energy -449.88747385
O        0.7461489809   -1.3197282204    0.6553415345
H        1.4638051381   -1.9685198504    0.8248864481
H        1.2044530509   -0.3873379824    0.7089470471
O       -1.2283004581   -1.0717071500    2.4639811541
H       -0.4932666800   -1.3079132939    1.8392866859
H       -1.4565603496   -0.1706683547    2.1259784993
O        1.6541014094    0.7992824860    0.6469290861
H        0.9116980797    1.4479278081    0.3274583069
H        1.9324749869    1.1439666930    1.5250477315
O       -0.3065251273    0.8880726290   -2.3530831384
H        0.5401933886    1.0073668652   -2.8392317099
H       -0.2824632189   -0.0847727699   -2.0524326978
O       -0.2870939979   -1.4139003929   -1.5631023454
H        0.1257529092   -1.4942710062   -0.6406687856
H        0.1712586241   -2.0923161653   -2.1038974724
O       -0.0923973035    2.1307658810   -0.2905737735
H       -0.2599946402    1.6786387993   -1.2000854238
H       -0.9156448672    1.9337540286    0.2120888055
18   
Iteration 26 Energy -449.88940401
O        0.7325045041   -1.3556336626    0.6575866476
H        1.4447501597   -2.0050116511    0.8393809701
H        1.1912781964   -0.4226187918    0.7062396139
O       -1.2228778977   -1.0843122336    2.4693481190
H       -0.4979201485   -1.3011595344    1.8292292083
H       -1.4672028609   -0.1849600930    2.1406871282
O        1.7048419862    0.8419052732    0.6486035906
H        0.9528883563    1.4597673813    0.2964201226
H        1.9167130742    1.1794577406    1.5455628602
O       -0.3271415939    0.8864656816   -2.3381140433
H        0.5138263490    1.0311685639   -2.8277632068
H       -0.2967002543   -0.0978146079   -2.0691896372
O       -0.2858681677   -1.4174372904   -1.5530909331
H        0.1467533239   -1.4734302252   -0.6374328742
H        0.1646277250   -2.1016549935   -2.0921538592
O       -0.0990589568    2.1397930783   -0.2919745777
H       -0.2040082343    1.6922125242   -1.2131623151
H       -0.9397656363    1.9319028445    0.1766931373
18   
Iteration 27 Energy -449.88989593
O        0.7447968076   -1.3504987333    0.6643958635
H        1.4380322929   -2.0158720313    0.8568774449
H        1.2345260232   -0.4318595347    0.6826672768
O       -1.2075769275   -1.0944658070    2.4644437355
H       -0.4924357980   -1.3001823535    1.8080015913
H       -1.4763674774   -0.1924922503    2.1575820232
O        1.6889802728    0.8475521749    0.6664324703
H        0.9569590179    1.4651282443    0.2658341278
H        1.8764335203    1.2118995519    1.5558438085
O       -0.2956905697    0.8989446986   -2.3320729802
H        0.5426750488    0.9744614316   -2.8373072049
H       -0.3440716150   -0.0930271054   -2.0830514518
O       -0.2917262951   -1.4012070690   -1.5668222968
H        0.1207238432   -1.4547944479   -0.6386268639
H        0.1906099853   -2.0761540640   -2.0918771532
O       -0.0874963685    2.1232209174   -0.2894374886
H       -0.2453866215    1.6505430643   -1.1896840185
H       -0.9253452146    1.9574433178    0.1936710669
18   
Iteration 28 Energy -449.89071518
O        0.7456246441   -1.3457360262    0.6544066854
H        1.4465736852   -2.0058766791    0.8415137300
H        1.2155696085   -0.4164753454    0.6995848499
O       -1.2076038667   -1.0991854191    2.4702732206
H       -0.4906091936   -1.3014326719    1.8140582717
H       -1.4855057102   -0.2002676219    2.1633495526
O        1.6905664915    0.8383094633    0.6708624712
H        0.9557813256    1.4590636213    0.2816624812
H        1.8778077492    1.2006477998    1.5620656480
O       -0.3099811178    0.8898036837   -2.3472368377
H        0.5210678101    0.9764463901   -2.8626277462
H       -0.3328194236   -0.0985345900   -2.0827023378
O       -0.2924560062   -1.4094031757   -1.5634895965
H        0.1178101743   -1.4568036714   -0.6335845838
H        0.1928696872   -2.0800373950   -2.0904408123
O       -0.0765292684    2.1330026822   -0.2876045135
H       -0.2248400808    1.6710413170   -1.1971134109
H       -0.9156865844    1.9640776425    0.1938928781
18   
Iteration 29 Energy -449.89099391
O        0.7379016026   -1.3329184470    0.6522037662
H        1.4383331366   -1.9967670516    0.8288697055
H        1.2077323052   -0.4031718200    0.7154928764
O       -1.2021339367   -1.1160452694    2.4831607356
H       -0.4883384580   -1.3013281474    1.8194112610
H       -1.4996923069   -0.2247229241    2.1753178963
O        1.6889265965    0.8385800523    0.6889976045
H        0.9638899117    1.4665654927    0.2947331794
H        1.8615331413    1.1877313759    1.5899257457
O       -0.3272053571    0.8872400592   -2.3403744058
H        0.4820901201    0.9873696416   -2.8890069804