8    
Iteration 0 Energy -78.78987660
C       -4.1339729012    0.7018370631   -0.0083990240
H       -3.4030489535   -0.0055535022   -0.3799613192
H       -4.3600179084    1.4028778145   -0.8016770801
H       -5.0378952095    0.1453808370    0.2076777477
C       -3.6141814562    1.4319958214    1.2618225792
H       -3.3988137129    2.4728307218    1.0544806414
H       -4.3549117145    1.4089257854    2.0518823638
H       -2.7123862030    0.9690689086    1.6417011317
8    
Iteration 1 Energy -78.78952604
C       -4.1316593648    0.7069613693   -0.0127342726
H       -3.4176493161   -0.0264756276   -0.3673531767
H       -4.3502566914    1.4040492061   -0.8120445532
H       -5.0421848178    0.1628412877    0.2087645162
C       -3.6083163165    1.4313806329    1.2599902655
H       -3.4246965024    2.4811142215    1.0654708531
H       -4.3498810698    1.3933565423    2.0491804922
H       -2.7009614762    0.9769890185    1.6379435610
8    
Iteration 2 Energy -78.78939358
C       -4.1308752563    0.7069985969   -0.0134121836
H       -3.4269648174   -0.0415403958   -0.3567088161
H       -4.3319803568    1.4021613519   -0.8179683982
H       -5.0519481443    0.1776928200    0.2035076324
C       -3.6074820151    1.4319116062    1.2596792915
H       -3.4435895878    2.4862359430    1.0720848426
H       -4.3418710424    1.3778873618    2.0555112495
H       -2.6908943349    0.9888610801    1.6265292431
8    
Iteration 3 Energy -78.78955751
C       -4.1372674008    0.7023678411   -0.0078563041
H       -3.4335432981   -0.0525807927   -0.3358923130
H       -4.2926321618    1.3934719946   -0.8286210941
H       -5.0798904255    0.2077421055    0.1884709331
C       -3.6163423584    1.4311860247    1.2634477695
H       -3.4679922921    2.4863812611    1.0702114737
H       -4.3248209996    1.3440141061    2.0772026514
H       -2.6731166187    1.0176982057    1.6022287304
8    
Iteration 4 Energy -78.78956757
C       -4.1368750775    0.6992783219   -0.0072425313
H       -3.4393232977   -0.0624358254   -0.3339362431
H       -4.2790184927    1.3912828730   -0.8275340111
H       -5.0864619327    0.2126659563    0.1816382378
C       -3.6181655936    1.4337687984    1.2637107664
H       -3.4761584997    2.4913179331    1.0767921419
H       -4.3191255820    1.3387797624    2.0845730097
H       -2.6704770791    1.0256139480    1.5912003030
8    
Iteration 5 Energy -78.78956713
C       -4.1372345674    0.6997499081   -0.0070216946
H       -3.4408266269   -0.0644033302   -0.3300903657
H       -4.2749913239    1.3906230952   -0.8297251147
H       -5.0888412484    0.2176457855    0.1810359004
C       -3.6182449515    1.4331428649    1.2637564058
H       -3.4807274424    2.4911461539    1.0766592518
H       -4.3170887594    1.3336789726    2.0853825390
H       -2.6676506353    1.0286894706    1.5891968404
8    
Iteration 6 Energy -78.78956615
C       -4.1373514685    0.6996260353   -0.0069100249
H       -3.4421012448   -0.0662418131   -0.3283874221
H       -4.2719584037    1.3900224865   -0.8305532085
H       -5.0905104674    0.2201649903    0.1799782189
C       -3.6184338450    1.4331599132    1.2638314396
H       -3.4834087182    2.4915913575    1.0773770928
H       -4.3155990765    1.3310978615    2.0865501698
H       -2.6662423308    1.0308549282    1.5873068586
8    
Iteration 7 Energy -78.78956586
C       -4.1374488517    0.6995200042   -0.0067594890
H       -3.4428278371   -0.0673427836   -0.3272176132
H       -4.2699056192    1.3896707139   -0.8309963807
H       -5.0916455105    0.2218339328    0.1793127623
C       -3.6186432690    1.4331627825    1.2638634516
H       -3.4851300591    2.4918354182    1.0777003027
H       -4.3146552128    1.3293633712    2.0873265246
H       -2.6653617855    1.0322468088    1.5859505033
8    
Iteration 8 Energy -78.78956574
C       -4.1375027421    0.6994639694   -0.0067304441
H       -3.4433124980   -0.0680016600   -0.3266617004
H       -4.2688494678    1.3894045734   -0.8313300960
H       -5.0922508526    0.2227135422    0.1788689174
C       -3.6187137650    1.4331812112    1.2639109967
H       -3.4860577378    2.4920024607    1.0780096135
H       -4.3140840007    1.3284790778    2.0877918968
H       -2.6648644035    1.0330652826    1.5853343216
